LAMMPS output created by EMC v9.4.4, build Jul 30 2020 09:28:04

        7364  atoms
        6517  bonds
       10290  angles
       13587  dihedrals

           8  atom types
           7  bond types
          12  angle types
          14  dihedral types

             0    41.91517271  xlo xhi
             0    41.91517271  ylo yhi
             0    41.91517271  zlo zhi

Masses

       1   20.00000  # C
       2   20.00000  # F
       3   20.00000  # GFOc
       4   20.00000  # GGS
       5   20.00000  # GOs
       6   20.00000  # Na
       7   20.00000  # WH
       8   20.00000  # WO

Atoms

       1   1   2.8014931091  38.0692918528  41.0030600419       1  0.3275  # C
       2   2   3.8243061757  37.9860095145  40.0808607093       1 -0.1576  # F
       3   2   2.6328662258  39.0339024698  40.4834774192       1 -0.1576  # F
       4   1   2.1903165285  37.3320273090  41.5928267416       1  0.3275  # C
       5   2   3.0368661160  36.6755964263  42.0917792056       1 -0.1576  # F
       6   2   1.6653527346  36.5927616155  41.1611859576       1 -0.1576  # F
       7   1   1.2610448205  37.6603542095  42.0985992256       1  0.3275  # C
       8   2   0.4476643636  37.2017905551  43.0471571383       1 -0.1576  # F
       9   2   0.4037130313  37.3614972555  41.9121200203       1 -0.1576  # F
      10   1   1.6986142813  38.3026727240  41.8147910047       1  0.3275  # C
      11   2   2.7259913501  37.7680739479  42.5000532860       1 -0.1576  # F
      12   2   0.7101734081  38.1879971399  40.9788900807       1 -0.1576  # F
      13   1   1.4100965758  39.2341912856  42.2150554062       1  0.3275  # C
      14   2   2.3693194644  39.3299101828  42.7019359033       1 -0.1576  # F
      15   2   0.7943870134  39.9136703339  41.3501913500       1 -0.1576  # F
      16   1   1.1809956654  38.9204626675  43.1944757521       1  0.3275  # C
      17   2   0.7973457659  38.2649051410  42.5980318611       1 -0.1576  # F
      18   2   0.8312694409  39.5940811882  43.9239478305       1 -0.1576  # F
      19   1   1.9618247692  38.0855016974  43.8459028523       1  0.3275  # C
      20   2   2.9284190681  37.5212297988  43.0194257270       1 -0.1576  # F
      21   2   1.2324496986  37.3242297826  44.3568185871       1 -0.1576  # F
      22   1   2.3742202537  38.6631727306  44.6529984164       1  0.3275  # C
      23   2   1.6003676441  39.6131289523  44.7529250030       1 -0.1576  # F
      24   2   2.7805915186  39.4521227573  44.2772850648       1 -0.1576  # F
      25   1   2.6611445911  38.2362003017  45.9103610419       1  0.3275  # C
      26   2   2.2548564200  36.9590555381  46.3066168764       1 -0.1576  # F
      27   2   2.5435034512  39.0669279432  45.7821252817       1 -0.1576  # F
      28   1   3.9515273387  37.9090235102  46.0478758867       1  0.3275  # C
      29   2   4.3853792571  37.7197701761  47.1299076216       1 -0.1576  # F
      30   2   4.9821349568  38.2541378977  46.1465290162       1 -0.1576  # F
      31   1   3.7793137869  37.0808502488  45.5499433130       1  0.3275  # C
      32   2   2.7336439625  37.2194592235  45.8932307852       1 -0.1576  # F
      33   2   3.2439540332  36.9755558760  44.6778364462       1 -0.1576  # F
      34   1   4.7857203190  36.4640091284  45.2228837970       1  0.3275  # C
      35   2   4.4968557210  35.7117831136  45.5822404304       1 -0.1576  # F
      36   2   4.8110137102  36.4879966285  44.1929403273       1 -0.1576  # F
      37   1   5.8849161388  37.1753415254  45.2463962607       1  0.3275  # C
      38   2   5.6272988869  37.2515631671  44.0455040749       1 -0.1576  # F
      39   2   6.2380409134  36.0761758745  45.1222599689       1 -0.1576  # F
      40   1   7.1038774060  37.3073939568  45.7680945048       1  0.3275  # C
      41   2   7.7220748622  38.3487366875  45.2614347515       1 -0.1576  # F
      42   2   7.0934954508  37.0690036881  47.0533824410       1 -0.1576  # F
      43   1   7.9801356312  36.3305693220  46.2182566635       1  0.2465  # C
      44   2   8.0159460459  36.2214318458  44.8752747306       1 -0.1336  # F
      45   2   8.9312080873  36.7844147617  46.1733664103       1 -0.1336  # F
      46   1   8.2808962887  35.4827015140  47.0211358299       1  0.1317  # C
      47   2   8.4386300352  35.9105751415  47.8648069149       1 -0.1193  # F
      48   3   9.3198714586  35.9479174435  46.8615403958       1 -0.3109  # GFOc
      49   1  10.3687517468  35.7267312573  46.5973098710       1  0.4954  # C
      50   2  10.3927389878  35.4494654275  45.6330832234       1 -0.1280  # F
      51   2  10.4190538458  36.5978276248  46.0252634643       1 -0.1559  # F
      52   1  11.1848976253  34.6181544041  46.9539753901       1  0.0465  # C
      53   2  11.2891249658  34.1430727249  45.7719866860       1 -0.1122  # F
      54   1  11.9453244109  33.9087953225  47.3602222121       1  0.5842  # C
      55   2  12.8074425635  34.6439296171  47.4042938433       1 -0.1563  # F
      56   2  11.5016305634  33.7278893626  46.5510899555       1 -0.1736  # F
      57   2  11.9563854231  33.4302469067  48.0018849337       1 -0.1844  # F
      58   3  11.8192532823  34.9683761372  48.0017514843       1 -0.2516  # GFOc
      59   1  11.4769048301  34.1936316022  49.2408903813       1  0.4557  # C
      60   2  12.5532759167  33.5378234111  49.3173477663       1 -0.1368  # F
      61   2  10.7829190717  33.7185087222  49.1425810015       1 -0.1393  # F
      62   1  11.5310364834  35.1441084627  50.1455677004       1  0.1062  # C
      63   2  11.0544933155  35.0492720672  51.2792894599       1 -0.1457  # F
      64   2  12.2047066375  35.8940071531  49.8785705181       1 -0.1482  # F
      65   4  12.1735458850  34.4571956278  50.8674437489       1  1.1345  # GGS
      66   5  12.1967808544  33.5428097438  51.0328065434       1 -0.6371  # GOs
      67   5  13.1933097554  33.9143593327  49.8037294544       1 -0.6371  # GOs
      68   5  12.7051855486  35.4281699871  51.6611821382       1 -0.6371  # GOs
      69   6  12.5162443922  36.5007408608  50.9995288948       1  1.0000  # Na
      70   1   7.4582465184  34.5747927940  47.5647431695       1  0.3275  # C
      71   2   6.0319435644  34.4427317297  47.0780525481       1 -0.1576  # F
      72   2   6.5953058153  34.6430543652  47.8352911796       1 -0.1576  # F
      73   1   8.5521958902  34.1916589518  48.1220038577       1  0.3275  # C
      74   2   7.5207465840  33.8566148006  48.4346062157       1 -0.1576  # F
      75   2   9.5827165352  33.9511821524  49.0444948170       1 -0.1576  # F
      76   1   9.1247909661  34.7629043571  47.4939732325       1  0.3275  # C
      77   2   9.9949267812  34.3855342483  47.9586330391       1 -0.1576  # F
      78   2   8.7239303210  34.4238212319  46.1000207577       1 -0.1576  # F
      79   1   9.3668344300  36.1135766050  48.0462952325       1  0.3275  # C
      80   2   8.4902874635  36.6086676852  48.3262291072       1 -0.1576  # F
      81   2  10.2738699305  36.8162651074  48.4987134274       1 -0.1576  # F
      82   1  10.2295957828  37.0540689651  47.4790176166       1  0.3275  # C
      83   2   9.9809579044  37.4214384856  46.5387740441       1 -0.1576  # F
      84   2  11.0978710417  37.1156745924  47.1761918198       1 -0.1576  # F
      85   1  10.2110524816  38.2703739512  47.7739602251       1  0.3275  # C
      86   2  10.3641564678  38.6944906181  48.8786473126       1 -0.1576  # F
      87   2   8.9931820598  38.4911049316  47.4781748891       1 -0.1576  # F
      88   1  10.5775550991  38.9081968414  46.9936991478       1  0.3275  # C
      89   2  10.8025836696  38.2527739980  46.3557432671       1 -0.1576  # F
      90   2   9.6898704976  39.0192154993  47.9480399604       1 -0.1576  # F
      91   1  10.5523460909  39.8138662888  46.4901038005       1  0.3275  # C
      92   2   9.7262872471  39.7210414870  45.8432025848       1 -0.1576  # F
      93   2  11.2756977401  39.8311212063  45.3658805791       1 -0.1576  # F
      94   1  10.5198606266  41.0778900779  46.7796077290       1  0.3275  # C
      95   2  10.8133477568  41.3566843109  45.9111417158       1 -0.1576  # F
      96   2   9.5326136295  41.2238373985  46.6046920891       1 -0.1576  # F
      97   1  10.9792457414  41.7854841348  47.7820395964       1  0.3275  # C
      98   2  12.4076869004  41.2531561702  48.3364445453       1 -0.1576  # F
      99   2  10.3102840562  41.4051775933  48.8082989970       1 -0.1576  # F
     100   1  10.6870413107  42.9987056852  47.9443628076       1  0.3275  # C
     101   2  10.5690278755  43.8644634299  47.6155165258       1 -0.1576  # F
     102   2   9.6140077858  42.6807148715  47.4012085137       1 -0.1576  # F
     103   1  10.2369154070  43.1146771362  49.0640840692       1  0.3275  # C
     104   2  10.0223079014  43.3074392086  50.6677795955       1 -0.1576  # F
     105   2   9.0539599198  43.0274543094  48.4103755597       1 -0.1576  # F
     106   1  11.5895306804  42.5031303143  49.6205614976       1  0.3275  # C
     107   2  12.0987201533  41.4692674860  49.3667428034       1 -0.1576  # F
     108   2  12.4203024887  41.9909497602  50.0377998014       1 -0.1576  # F
     109   1  12.1539922302  43.5419628893  49.3451603122       1  0.3275  # C
     110   2  11.4532518957  43.9363825838  49.7198323296       1 -0.1576  # F
     111   2  12.9110561911  44.2225575416  49.9500918047       1 -0.1576  # F
     112   1  12.9770331467  43.7074972264  48.9756721796       1  0.2465  # C
     113   2  13.7989202353  43.5687853214  50.0480657789       1 -0.1336  # F
     114   2  13.0673450329  42.5689976463  48.7852537936       1 -0.1336  # F
     115   1  12.4827048226  44.6023853262  47.9733031882       1  0.1317  # C
     116   2  12.1251403468  44.2428410717  46.6682516046       1 -0.1193  # F
     117   3  11.6380338176  44.5954534716  48.5940413163       1 -0.3109  # GFOc
     118   1  11.0033627334  43.7779218349  48.8544674701       1  0.4954  # C
     119   2  10.6675981648  43.2576489689  50.1638548682       1 -0.1280  # F
     120   2   9.8454777444  43.8919624689  48.6683154366       1 -0.1559  # F
     121   1  11.9363282145  43.0868309842  48.1640438829       1  0.0465  # C
     122   2  12.5343860084  41.7727136372  48.2723462079       1 -0.1122  # F
     123   1  11.7123493021  42.7575683863  47.0977651590       1  0.5842  # C
     124   2  12.0833272473  41.8573667028  46.7903497911       1 -0.1563  # F
     125   2  10.9332357669  42.2050607032  47.1728215539       1 -0.1736  # F
     126   2  11.2172138984  43.4119450724  46.4572695047       1 -0.1844  # F
     127   3  12.6147542407  43.5941993992  48.1757317007       1 -0.2516  # GFOc
     128   1  12.9870885294  44.7220425704  48.8026063519       1  0.4557  # C
     129   2  13.8310474942  44.9100465671  49.5384500927       1 -0.1368  # F
     130   2  12.3959845822  44.6561050168  49.8059549261       1 -0.1393  # F
     131   1  12.9496213600  45.5215083533  47.8286545897       1  0.1062  # C
     132   2  12.6923090994  46.2431360205  48.4423352769       1 -0.1457  # F
     133   2  13.0376120371  44.2158989902  47.2813627837       1 -0.1482  # F
     134   4  13.1457327076  45.9817877177  47.0427249250       1  1.1345  # GGS
     135   5  13.6152410887  46.1485844416  46.4611813707       1 -0.6371  # GOs
     136   5  14.0785268955  46.2484281824  47.3615104186       1 -0.6371  # GOs
     137   5  12.3789220745  46.7390479508  47.1901989919       1 -0.6371  # GOs
     138   6  11.3359220358  47.1631339043  47.0197584648       1  1.0000  # Na
     139   1  13.6502895983  44.9380074172  47.9969057667       1  0.3275  # C
     140   2  13.9233030784  45.1329921374  47.1189837503       1 -0.1576  # F
     141   2  14.3672989365  44.0898008703  48.2345746063       1 -0.1576  # F
     142   1  13.9058728017  45.8058672212  48.7112790588       1  0.3275  # C
     143   2  15.0494403055  45.7512183980  48.8067145896       1 -0.1576  # F
     144   2  13.9280342698  46.6953960569  48.1003457703       1 -0.1576  # F
     145   1  13.3405647876  45.6440844483  49.7218686364       1  0.3275  # C
     146   2  12.4070590673  45.2779562248  49.3852978513       1 -0.1576  # F
     147   2  14.2602651912  45.3265887616  50.4329935068       1 -0.1576  # F
     148   1  12.8261464754  46.5027202605  49.4058356954       1  0.3275  # C
     149   2  11.8854693936  46.6015483720  48.7557058573       1 -0.1576  # F
     150   2  13.0371377837  46.7876309257  48.2753979625       1 -0.1576  # F
     151   1  13.2721541245  47.2476248989  50.0946921031       1  0.3275  # C
     152   2  13.5921404953  46.7174958222  50.7057887342       1 -0.1576  # F
     153   2  14.2486592646  47.3846419566  50.1292717164       1 -0.1576  # F
     154   1  12.8718063606  48.4110075222  50.3266406628       1  0.3275  # C
     155   2  13.0456533893  49.2701500792  50.8054970731       1 -0.1576  # F
     156   2  12.5847230833  48.7687702790  49.2844090100       1 -0.1576  # F
     157   1  12.3085338677  47.8816711362  51.6260122267       1  0.3275  # C
     158   2  13.2746822924  47.8169657541  52.4138589187       1 -0.1576  # F
     159   2  12.7965492313  46.7715676102  51.5375252160       1 -0.1576  # F
     160   1  11.8436042240  48.7465101539  52.4596063683       1  0.3275  # C
     161   2  11.4926734815  49.7543710885  52.1491976909       1 -0.1576  # F
     162   2  12.2264441716  49.6735037202  52.6840856957       1 -0.1576  # F
     163   1  11.7024646788  48.3893303633  53.5504911575       1  0.3275  # C
     164   2  10.7673062968  48.8533466038  53.9238584323       1 -0.1576  # F
     165   2  11.8262078796  47.4152223794  53.3897227320       1 -0.1576  # F
     166   1  12.0798586892  49.1724036859  54.1001586921       1  0.3275  # C
     167   2  12.7758873202  50.3070880279  54.0489984168       1 -0.1576  # F
     168   2  11.8356308103  49.3279727023  55.0211053696       1 -0.1576  # F
     169   1  12.7585359220  48.0923404581  54.5078855588       1  0.3275  # C
     170   2  13.7645398239  48.0903154857  54.1287441845       1 -0.1576  # F
     171   2  12.7445547292  48.0934196294  55.4682556106       1 -0.1576  # F
     172   1  12.0333112413  47.5193152653  54.1512170891       1  0.3275  # C
     173   2  12.6132556341  47.9145085945  53.2208325212       1 -0.1576  # F
     174   2  12.1853133322  46.7442533767  54.0420458634       1 -0.1576  # F
     175   1  10.8590913432  47.6650597855  54.6739598385       1  0.3275  # C
     176   2  10.5013399581  47.0469561449  55.6466830618       1 -0.1576  # F
     177   2  10.9839763210  48.6334449678  55.3842708853       1 -0.1576  # F
     178   1  10.6346277924  46.7256609451  53.7234115669       1  0.3275  # C
     179   2  10.1032584336  45.9510372894  54.3812119680       1 -0.1576  # F
     180   2  10.9175314291  45.7233906921  53.5657039751       1 -0.1576  # F
     181   1   9.9214596071  46.9945290213  53.1324988598       1  0.2465  # C
     182   2   8.9452260004  47.7331890403  53.7562944378       1 -0.1336  # F
     183   2   9.6924847077  46.3222061907  52.7280081873       1 -0.1336  # F
     184   1  10.2355223693  47.6629793527  52.1730843442       1  0.1317  # C
     185   2  10.6148318638  46.2962770885  51.9194427505       1 -0.1193  # F
     186   3  10.8418074772  48.1213211265  51.3208720810       1 -0.3109  # GFOc
     187   1  11.1880616877  48.5489936496  50.1486715479       1  0.4954  # C
     188   2  12.0149231068  49.1885983047  50.6750289497       1 -0.1280  # F
     189   2  10.9790724424  49.9660741221  49.8106745394       1 -0.1559  # F
     190   1  10.3641871099  47.7617675893  49.6740646199       1  0.0465  # C
     191   2   9.8748294310  46.6652127232  50.5282771236       1 -0.1122  # F
     192   1  10.5544386407  48.1770023748  48.8116365591       1  0.5842  # C
     193   2  10.4305987609  47.5117799970  48.3579542047       1 -0.1563  # F
     194   2  10.5117900711  48.6187439934  48.1900758984       1 -0.1736  # F
     195   2   9.8731743321  49.0529360720  49.1202247147       1 -0.1844  # F
     196   3   9.3884647965  48.3382084855  49.4889408299       1 -0.2516  # GFOc
     197   1   8.4871836203  47.8504630573  50.2943120171       1  0.4557  # C
     198   2   8.4278989521  47.0041749809  50.0910056819       1 -0.1368  # F
     199   2   8.7339919672  48.3110679228  51.1120507172       1 -0.1393  # F
     200   1   7.6035956472  48.3276524422  50.8730513062       1  0.1062  # C
     201   2   6.6810027966  48.6485828600  50.0924821556       1 -0.1457  # F
     202   2   7.1377276533  47.8125255353  52.1678433877       1 -0.1482  # F
     203   4   7.7202433646  49.3934680953  51.7077612260       1  1.1345  # GGS
     204   5   8.3245363485  49.5137680023  52.4326221750       1 -0.6371  # GOs
     205   5   6.9173803204  48.9681749940  52.8511872254       1 -0.6371  # GOs
     206   5   7.0305347246  49.9844566696  51.1824828471       1 -0.6371  # GOs
     207   6   6.4411425720  50.8542931030  50.7998127919       1  1.0000  # Na
     208   1   9.2314120734  48.5058027123  52.5825754747       1  0.3275  # C
     209   2   8.2798702288  47.3016145279  52.8639082691       1 -0.1576  # F
     210   2   8.8587856779  49.2105470917  51.9663561536       1 -0.1576  # F
     211   1   9.6613026793  48.6478965465  53.3949266272       1  0.3275  # C
     212   2  10.3301779307  48.0314346914  53.8623063491       1 -0.1576  # F
     213   2   8.6445588477  48.8614843984  53.9601908971       1 -0.1576  # F
     214   1   9.8563281689  49.9334102426  53.4869569841       1  0.3275  # C
     215   2  10.8124802276  50.3548554785  53.2743600982       1 -0.1576  # F
     216   2  10.9259113075  49.8672331791  54.3161964254       1 -0.1576  # F
     217   1   8.7832098812  49.9680836574  53.7356655959       1  0.3275  # C
     218   2   9.2051113719  50.0838686589  54.5375875782       1 -0.1576  # F
     219   2   8.0235561422  48.8216591433  53.5610242926       1 -0.1576  # F
     220   1   8.2206939593  50.9392430658  53.8603047974       1  0.3275  # C
     221   2   8.9151242549  51.6806962101  53.1604772386       1 -0.1576  # F
     222   2   7.9532864867  52.0161764245  54.3036789055       1 -0.1576  # F
     223   1   7.3629973559  50.8823702607  53.2507237786       1  0.3275  # C
     224   2   7.4553212958  50.9427703828  52.1482517592       1 -0.1576  # F
     225   2   6.8051774696  49.9238859602  53.3040100393       1 -0.1576  # F
     226   1   6.7387952089  51.8854300459  53.1595662627       1  0.3275  # C
     227   2   6.4489780697  52.2200888773  52.3654546717       1 -0.1576  # F
     228   2   7.7713480443  51.5531592624  53.2911974878       1 -0.1576  # F
     229   1   6.1003142736  51.9454291110  53.8069611078       1  0.3275  # C
     230   2   6.7901440088  51.9338699967  54.8716731267       1 -0.1576  # F
     231   2   5.3178723807  51.4259323105  53.6662641686       1 -0.1576  # F
     232   1   5.2963548395  52.9491655591  54.0307104121       1  0.3275  # C
     233   2   4.5475320677  52.0072324361  53.7136167615       1 -0.1576  # F
     234   2   5.0729713334  53.8567366958  54.7731187971       1 -0.1576  # F
     235   1   4.7427048096  54.0185459895  53.5767015007       1  0.3275  # C
     236   2   4.7889236423  53.8406025374  52.6807432619       1 -0.1576  # F
     237   2   3.9985313519  53.6452163417  53.5922106367       1 -0.1576  # F
     238   1   4.5115099708  55.0977596751  53.7607232001       1  0.3275  # C
     239   2   4.6624774555  54.7093737946  54.5700142646       1 -0.1576  # F
     240   2   3.9859402049  55.6999202933  54.2034833527       1 -0.1576  # F
     241   1   4.5556011921  55.5573123298  53.0022646728       1  0.3275  # C
     242   2   5.5320611447  55.5529832182  52.9324031048       1 -0.1576  # F
     243   2   3.8457962493  54.6278162765  52.5999742544       1 -0.1576  # F
     244   1   4.4565757815  56.4380821780  52.7377966119       1  0.3275  # C
     245   2   3.3365151386  56.5103427510  52.0311220800       1 -0.1576  # F
     246   2   5.0423712938  56.3940622405  51.8343419594       1 -0.1576  # F
     247   1   4.7857653805  57.3566282760  53.2963010400       1  0.3275  # C
     248   2   4.6863389758  57.7196622687  52.4821250647       1 -0.1576  # F
     249   2   5.7326530271  57.2798021557  53.5476093193       1 -0.1576  # F
     250   1   4.3421361253  56.9296248849  54.1889163885       1  0.2465  # C
     251   2   4.3120933746  57.1787661921  55.2732492746       1 -0.1336  # F
     252   2   4.9418584479  56.3048329782  53.7832041257       1 -0.1336  # F
     253   1   3.2484636403  56.8977126650  54.3512324011       1  0.1317  # C
     254   2   3.1728302942  57.2054181642  55.2898886659       1 -0.1193  # F
     255   3   2.6660631313  57.3180702158  53.5212620427       1 -0.3109  # GFOc
     256   1   2.7980093076  57.0244332056  52.4563175155       1  0.4954  # C
     257   2   3.2601283864  56.0884759434  53.0858952356       1 -0.1280  # F
     258   2   4.0142586117  57.9461835389  51.8476149441       1 -0.1559  # F
     259   1   1.8408804583  56.5258101916  52.3920931496       1  0.0465  # C
     260   2   2.9367289489  55.8428346446  52.5035543322       1 -0.1122  # F
     261   1   1.0960156233  56.0802177438  52.5382009705       1  0.5842  # C
     262   2   0.2179697644  55.2954976152  53.1404807595       1 -0.1563  # F
     263   2   1.6193261314  55.1013000771  51.9901727673       1 -0.1736  # F
     264   2   0.1792531609  56.0922116187  52.3347433192       1 -0.1844  # F
     265   3   0.9411015241  57.4981758569  52.1503966925       1 -0.2516  # GFOc
     266   1   0.6043897492  58.1902593020  51.0217619422       1  0.4557  # C
     267   2  -0.1282295396  58.0024747937  50.0085995867       1 -0.1368  # F
     268   2   1.1331998406  58.0608694655  50.0048470221       1 -0.1393  # F
     269   1   0.7797176998  59.5743952765  51.8808761488       1  0.1062  # C
     270   2   1.0558373746  60.4076961956  51.2978637401       1 -0.1457  # F
     271   2   1.2578817350  60.4305726919  52.7835269729       1 -0.1482  # F
     272   4  -0.3514339039  59.5248341096  52.2700513543       1  1.1345  # GGS
     273   5  -1.3589385473  59.3638255407  52.4938917407       1 -0.6371  # GOs
     274   5  -0.4951606662  59.6045290108  51.4257343604       1 -0.6371  # GOs
     275   5   0.5284601440  59.0008892156  53.1026063393       1 -0.6371  # GOs
     276   6   1.6788312153  58.9167192208  53.4170635647       1  1.0000  # Na
     277   1   3.0171765335  55.8610202698  54.4817609209       1  0.3275  # C
     278   2   3.0157891712  55.3065517497  53.6532895805       1 -0.1576  # F
     279   2   4.3705480938  55.8387586300  55.0627664066       1 -0.1576  # F
     280   1   2.2299841897  55.8958665280  55.1067619066       1  0.3275  # C
     281   2   1.8434397551  54.8294999471  54.7213072238       1 -0.1576  # F
     282   2   1.6727976328  56.3949272744  55.1698812377       1 -0.1576  # F
     283   1   2.4428524710  56.0418164231  56.1341156907       1  0.3275  # C
     284   2   2.0391667515  55.2786440268  56.0811873729       1 -0.1576  # F
     285   2   2.4263721178  56.5476401626  57.1233133804       1 -0.1576  # F
     286   1   2.7583354286  57.1072964239  55.9607370518       1  0.3275  # C
     287   2   2.2119327569  57.3377166737  56.5094201505       1 -0.1576  # F
     288   2   3.2359233415  57.6288961593  56.9671916685       1 -0.1576  # F
     289   1   3.1374171950  57.8176769223  55.0662016975       1  0.3275  # C
     290   2   4.5486860091  58.1327663468  54.7887101362       1 -0.1576  # F
     291   2   2.5903852110  57.7795816502  54.3010689587       1 -0.1576  # F
     292   1   2.8712142056  58.8008208405  55.6983956438       1  0.3275  # C
     293   2   3.6678859417  59.4325587907  55.5592022780       1 -0.1576  # F
     294   2   1.8855347400  59.6845246837  55.7834897743       1 -0.1576  # F
     295   1   3.1800201590  58.4600644227  56.3521636248       1  0.3275  # C
     296   2   2.6373135605  59.0606198804  57.7309467428       1 -0.1576  # F
     297   2   4.0133509917  58.5203977988  55.9223044036       1 -0.1576  # F
     298   1   3.8457024762  57.1755520060  55.9293272876       1  0.3275  # C
     299   2   4.3726540067  56.7261250431  56.2129603658       1 -0.1576  # F
     300   2   2.9085484745  56.9642666374  56.8732781912       1 -0.1576  # F
     301   1   3.7461063807  57.0420150429  54.7783043112       1  0.3275  # C
     302   2   2.6337706342  56.8364902874  54.2516194730       1 -0.1576  # F
     303   2   4.4374202521  56.3564601453  54.7982540547       1 -0.1576  # F
     304   1   3.8368627614  58.2876328225  53.5292321949       1  0.3275  # C
     305   2   4.3211907251  58.7801509269  53.0298400587       1 -0.1576  # F
     306   2   4.1598770686  59.0752961411  54.4627246247       1 -0.1576  # F
     307   1   2.4574180043  58.8263622241  52.8535238489       1  0.3275  # C
     308   2   2.2755154411  59.9168549836  52.7686160842       1 -0.1576  # F
     309   2   2.2502409757  58.1016787457  52.3126960463       1 -0.1576  # F
     310   1   2.3087683779  57.8425783539  53.5276587029       1  0.3275  # C
     311   2   2.4965339336  58.5586089719  54.0505741818       1 -0.1576  # F
     312   2   1.5459920958  56.9997195215  53.0012484579       1 -0.1576  # F
     313   1   3.5822545269  57.6611185389  53.9253654438       1  0.3275  # C
     314   2   3.8293724215  57.8052308093  54.6844837637       1 -0.1576  # F
     315   2   3.5110031542  56.6439162560  53.7831746827       1 -0.1576  # F
     316   1   5.1381959261  58.3209580145  53.6485856254       1  0.3275  # C
     317   2   5.6329675601  59.3288681097  53.2838151677       1 -0.1576  # F
     318   2   6.1981645071  57.4866150344  53.5518537066       1 -0.1576  # F
     319   1   5.3756589796  58.9444369235  54.3236202654       1  0.2465  # C
     320   2   6.0564342843  58.7584187407  55.2591782591       1 -0.1336  # F
     321   2   5.3952022954  59.6674881248  53.9299907226       1 -0.1336  # F
     322   1   4.3602363065  59.6603828544  54.7390351331       1  0.1317  # C
     323   2   4.6511953553  59.8138280715  55.4796667638       1 -0.1193  # F
     324   3   3.0846119533  59.1493525969  54.8279817054       1 -0.3109  # GFOc
     325   1   1.6594251542  59.4793895337  54.4469339085       1  0.4954  # C
     326   2   1.8283856347  60.3203504947  53.7199614422       1 -0.1280  # F
     327   2   1.4816653141  58.1324319702  53.9517251414       1 -0.1559  # F
     328   1   0.9257625228  59.0479344985  55.2612397037       1  0.0465  # C
     329   2  -0.2203576461  59.6358423301  55.0111102626       1 -0.1122  # F
     330   1   1.0453073806  58.2806998174  55.2749396502       1  0.5842  # C
     331   2   2.0330857734  58.1740543077  55.1423283946       1 -0.1563  # F
     332   2   1.2516227021  56.9214757790  55.8899496490       1 -0.1736  # F
     333   2  -0.4232631892  58.2877990688  54.9146980189       1 -0.1844  # F
     334   3   1.0897594710  59.3027126894  56.2653687685       1 -0.2516  # GFOc
     335   1   0.2304614165  58.7496092943  57.0621220707       1  0.4557  # C
     336   2   1.2977512165  58.0967105539  57.7058991342       1 -0.1368  # F
     337   2   0.0311226285  57.8884358272  56.1913533133       1 -0.1393  # F
     338   1  -0.5050948831  59.2066217422  57.1987586907       1  0.1062  # C
     339   2  -0.1557636460  59.9221469199  57.6752569642       1 -0.1457  # F
     340   2  -0.0833911595  59.2119108873  56.3949777526       1 -0.1482  # F
     341   4  -1.2256959854  59.0281878112  57.8818474079       1  1.1345  # GGS
     342   5  -2.7798002123  58.8758799275  57.8259029361       1 -0.6371  # GOs
     343   5  -1.5416247182  59.4966252967  57.1516171829       1 -0.6371  # GOs
     344   5  -0.8876708990  58.4002576692  58.9080435377       1 -0.6371  # GOs
     345   6   0.1163123961  57.8159246789  59.6024668757       1  1.0000  # Na
     346   1   4.3688978603  60.0511200101  53.8583240051       1  0.3275  # C
     347   2   4.6937411417  59.6854921363  53.3799796297       1 -0.1576  # F
     348   2   3.1514512362  59.3392079672  54.1005793524       1 -0.1576  # F
     349   1   4.0457483629  60.8422926230  53.2606171818       1  0.3275  # C
     350   2   2.8284719928  61.1528539018  53.1075866139       1 -0.1576  # F
     351   2   4.2020482878  61.9105272602  52.8886560751       1 -0.1576  # F
     352   1   5.2563911267  60.2194192415  52.8270099385       1  0.3275  # C
     353   2   5.3592934803  60.2153441552  51.8560178650       1 -0.1576  # F
     354   2   5.5778839003  60.2949685660  53.9192328795       1 -0.1576  # F
     355   1   4.6593951273  59.4545292250  52.1155135127       1  0.3275  # C
     356   2   4.2628842717  60.4589888662  51.5406663196       1 -0.1576  # F
     357   2   3.6703721479  58.4201329095  52.4670982243       1 -0.1576  # F
     358   1   5.6072320653  58.8407451835  51.7538009034       1  0.3275  # C
     359   2   5.7587764313  59.5377068900  50.9114063110       1 -0.1576  # F
     360   2   6.2231210971  58.0430606312  51.6701646245       1 -0.1576  # F
     361   1   6.2326031367  58.3888054062  52.7900417014       1  0.3275  # C
     362   2   7.5062109552  58.1119356386  52.4963599810       1 -0.1576  # F
     363   2   5.2645794581  58.0757993035  52.8861646620       1 -0.1576  # F
     364   1   6.9253587982  59.3303921006  53.6201737516       1  0.3275  # C
     365   2   6.4614711482  58.6507019909  53.9470128025       1 -0.1576  # F
     366   2   6.8096077729  59.9210577245  54.4975904686       1 -0.1576  # F
     367   1   7.7258652975  58.5679151520  53.4177614098       1  0.3275  # C
     368   2   7.6849897535  58.9553808392  52.5653533648       1 -0.1576  # F
     369   2   8.3185966865  58.3953385258  53.9126023977       1 -0.1576  # F
     370   1   7.6351859830  57.4131524411  53.7067286942       1  0.3275  # C
     371   2   7.9191355179  57.2489135849  52.6746686469       1 -0.1576  # F