LAMMPS output created by EMC v9.4.4, build Jul 30 2020 09:28:04

        7364  atoms
        6517  bonds
       10290  angles
       13587  dihedrals

           8  atom types
           7  bond types
          12  angle types
          14  dihedral types

             0    41.91517271  xlo xhi
             0    41.91517271  ylo yhi
             0    41.91517271  zlo zhi

Masses

       1   20.00000  # C
       2   20.00000  # F
       3   20.00000  # GFOc
       4   20.00000  # GGS
       5   20.00000  # GOs
       6   20.00000  # Na
       7   20.00000  # WH
       8   20.00000  # WO

Atoms

       1   1  30.0945579825  15.6045297006  34.8150692419       1  0.3275  # C
       2   2  30.5601901577  16.4177009921  34.5939232425       1 -0.1576  # F
       3   2  30.9078380200  14.6759008511  35.6375657568       1 -0.1576  # F
       4   1  29.6890165062  15.0532038206  34.0129626436       1  0.3275  # C
       5   2  30.1297593763  14.1792712477  34.1593832056       1 -0.1576  # F
       6   2  28.9910983133  14.5367174869  34.5213435208       1 -0.1576  # F
       7   1  29.5084685289  16.1240978976  33.4293100648       1  0.3275  # C
       8   2  28.6087929996  15.6235098497  33.5769379793       1 -0.1576  # F
       9   2  29.2875878643  15.5400235796  32.5753956133       1 -0.1576  # F
      10   1  30.4787137275  17.0500353553  33.4820276851       1  0.3275  # C
      11   2  29.8900030309  17.9282904068  33.9999480972       1 -0.1576  # F
      12   2  29.9694201935  16.9900126414  32.7247100496       1 -0.1576  # F
      13   1  31.7388862075  17.3923525550  33.2350303654       1  0.3275  # C
      14   2  31.7232326371  18.3253049422  32.5909657188       1 -0.1576  # F
      15   2  31.8184164805  17.1112062528  34.3484205234       1 -0.1576  # F
      16   1  32.0249322241  16.1744204393  32.6076434439       1  0.3275  # C
      17   2  30.9175456544  16.3330387464  32.5963123991       1 -0.1576  # F
      18   2  31.7255358319  15.7340448497  31.7312098299       1 -0.1576  # F
      19   1  33.0919834871  15.8987763765  33.0470799841       1  0.3275  # C
      20   2  33.5510323700  15.1780399129  32.3169469353       1 -0.1576  # F
      21   2  32.3545667982  15.5622418825  33.2858612570       1 -0.1576  # F
      22   1  33.3262344422  16.9919492547  33.0110906082       1  0.3275  # C
      23   2  33.9888318465  17.2244840387  31.8121004233       1 -0.1576  # F
      24   2  33.8056781733  16.5240937603  34.0617189900       1 -0.1576  # F
      25   1  32.5692164689  17.4892104566  32.7168112972       1  0.3275  # C
      26   2  31.9059905747  16.6477018867  33.3798648209       1 -0.1576  # F
      27   2  32.5959145209  16.7771928834  31.9259326402       1 -0.1576  # F
      28   1  32.5686848176  18.8317884891  32.9918840426       1  0.3275  # C
      29   2  33.3882846843  18.6517655148  33.6229135848       1 -0.1576  # F
      30   2  33.3220648994  19.8047532490  32.3385689719       1 -0.1576  # F
      31   1  31.6341876486  19.2366734449  33.4063283660       1  0.3275  # C
      32   2  31.8365108147  20.2206639437  33.9118061504       1 -0.1576  # F
      33   2  30.3762095557  19.0233914362  33.2283491021       1 -0.1576  # F
      34   1  32.2264930115  18.6173036975  34.1088141404       1  0.3275  # C
      35   2  31.5582389702  18.3276264073  33.3629408801       1 -0.1576  # F
      36   2  32.8311648318  17.9812454964  34.3703977896       1 -0.1576  # F
      37   1  33.4652905145  19.4249302305  34.2357361213       1  0.3275  # C
      38   2  32.9428050576  20.1227057342  33.3716522666       1 -0.1576  # F
      39   2  33.6967152691  20.5470392833  34.7306446453       1 -0.1576  # F
      40   1  34.0316394690  17.9734584198  34.3089829273       1  0.3275  # C
      41   2  34.0454783476  17.7196978811  35.2567213908       1 -0.1576  # F
      42   2  34.2614333753  17.0778451327  34.6063356149       1 -0.1576  # F
      43   1  33.6377683793  18.2366364298  33.3208774446       1  0.2465  # C
      44   2  32.7940222050  17.5326339410  33.8307683365       1 -0.1336  # F
      45   2  33.7269024837  19.4801843604  33.3150191411       1 -0.1336  # F
      46   1  33.3688570771  18.3235871304  32.0970927754       1  0.1317  # C
      47   2  33.2616698250  17.6165492846  31.5066970342       1 -0.1193  # F
      48   3  32.3694184383  18.4473923134  31.8269575581       1 -0.3109  # GFOc
      49   1  31.6003582651  19.0120953534  31.5724343410       1  0.4954  # C
      50   2  31.2243689888  19.2850065177  32.6736326903       1 -0.1280  # F
      51   2  31.1323899115  18.1993042125  31.2214591444       1 -0.1559  # F
      52   1  31.1869690387  20.0473185083  31.0117947282       1  0.0465  # C
      53   2  30.2158294766  20.4226625447  31.1577731772       1 -0.1122  # F
      54   1  31.9803638229  20.7207495984  31.6394960450       1  0.5842  # C
      55   2  31.4614341622  20.2071575192  32.6230145354       1 -0.1563  # F
      56   2  31.8691675831  21.5016006984  30.5817985031       1 -0.1736  # F
      57   2  32.3895883618  21.6812944631  32.1557211590       1 -0.1844  # F
      58   3  31.4588050435  19.7330305423  30.5796323543       1 -0.2516  # GFOc
      59   1  32.7191506546  19.2508193770  29.8986613864       1  0.4557  # C
      60   2  32.9348540707  18.1515786170  29.8307972581       1 -0.1368  # F
      61   2  34.1689020324  19.0240965756  30.3814031480       1 -0.1393  # F
      62   1  32.4514398046  20.6391349201  29.5166664822       1  0.1062  # C
      63   2  33.5628213073  20.5201336639  29.0629631973       1 -0.1457  # F
      64   2  32.4562266050  21.5290044081  30.0342762636       1 -0.1482  # F
      65   4  32.0729899505  20.9966746781  29.0918338016       1  1.1345  # GGS
      66   5  32.4210343318  20.6433856113  28.1418291098       1 -0.6371  # GOs
      67   5  31.5875649927  20.7434757025  30.2287712296       1 -0.6371  # GOs
      68   5  31.5967745722  21.5268224286  28.5698257399       1 -0.6371  # GOs
      69   6  31.8429123345  21.6768288700  27.2746362076       1  1.0000  # Na
      70   1  33.8120613749  19.1481120430  31.7481452112       1  0.3275  # C
      71   2  33.3472090238  19.9863525717  30.7174265130       1 -0.1576  # F
      72   2  34.3918289472  19.8927339002  32.5950649723       1 -0.1576  # F
      73   1  34.6748753018  18.5876974147  32.3122156426       1  0.3275  # C
      74   2  34.8426141856  17.2872938434  32.1358022749       1 -0.1576  # F
      75   2  34.2161191877  19.3352349312  32.6392299127       1 -0.1576  # F
      76   1  35.7100928051  18.8242494662  32.6912025343       1  0.3275  # C
      77   2  35.6085691732  18.2148387982  33.5518353508       1 -0.1576  # F
      78   2  36.2335767327  18.7091864631  31.6532254367       1 -0.1576  # F
      79   1  35.7342525333  19.8150542505  33.6059292466       1  0.3275  # C
      80   2  35.5056270142  20.1427644456  32.5820146677       1 -0.1576  # F
      81   2  34.7056037850  20.0526544690  33.5223639760       1 -0.1576  # F
      82   1  35.7013740046  19.7502902495  34.6000798670       1  0.3275  # C
      83   2  36.7369421629  20.2859683256  34.5025869516       1 -0.1576  # F
      84   2  36.3944386978  19.5061311356  35.7955865246       1 -0.1576  # F
      85   1  34.7697622346  19.2473623939  35.3778402899       1  0.3275  # C
      86   2  34.3515408839  18.6611887072  34.5847693688       1 -0.1576  # F
      87   2  35.2966087633  19.2386036788  36.3446519913       1 -0.1576  # F
      88   1  34.1309317703  19.6756741647  35.6907403216       1  0.3275  # C
      89   2  34.6846271582  20.6676583901  35.8209675524       1 -0.1576  # F
      90   2  33.3284074270  20.5898232566  35.3508770871       1 -0.1576  # F
      91   1  33.7320476783  18.7864165073  36.3012663339       1  0.3275  # C
      92   2  34.3758931045  18.1704429425  36.0001802319       1 -0.1576  # F
      93   2  33.1419677860  18.2488957572  36.9714798862       1 -0.1576  # F
      94   1  33.0501339994  18.4194748275  35.7491458155       1  0.3275  # C
      95   2  34.0344424029  18.5132252063  35.2496194846       1 -0.1576  # F
      96   2  33.1766219034  17.6450763233  35.9822121518       1 -0.1576  # F
      97   1  32.2875646150  18.8722033622  35.3482961676       1  0.3275  # C
      98   2  31.8547663724  19.0454897542  34.6703362907       1 -0.1576  # F
      99   2  31.6121072084  19.2347598991  36.1568765112       1 -0.1576  # F
     100   1  33.0220468087  19.7946681838  35.7967654392       1  0.3275  # C
     101   2  32.5100651943  21.0258821108  35.7267700128       1 -0.1576  # F
     102   2  33.7466883478  19.2288220626  35.0680381262       1 -0.1576  # F
     103   1  33.3349104246  20.3446014806  36.6248163327       1  0.3275  # C
     104   2  33.5197385569  20.9687415375  36.3097369241       1 -0.1576  # F
     105   2  32.8947579834  19.9388225244  37.2139312380       1 -0.1576  # F
     106   1  33.9912680977  20.7755318993  37.9993584051       1  0.3275  # C
     107   2  33.1939580128  21.6479702324  37.7782690671       1 -0.1576  # F
     108   2  33.2498438483  21.0687929273  39.1293368246       1 -0.1576  # F
     109   1  34.9735982058  20.5248785290  38.3846866643       1  0.3275  # C
     110   2  35.1729482961  21.1161964363  39.2021953004       1 -0.1576  # F
     111   2  35.7824774568  20.5014375826  37.1988738745       1 -0.1576  # F
     112   1  34.7967010643  19.6337295232  39.1566528314       1  0.2465  # C
     113   2  34.2859686098  19.0911083269  38.4504968059       1 -0.1336  # F
     114   2  33.6651877040  19.2136948667  39.5043702784       1 -0.1336  # F
     115   1  35.0466287437  19.1078555527  40.7436467840       1  0.1317  # C
     116   2  34.3797173297  19.1724432056  41.6165790298       1 -0.1193  # F
     117   3  35.6744445028  20.0939179023  40.5325393421       1 -0.3109  # GFOc
     118   1  35.7580006330  20.8553887216  39.7765339367       1  0.4954  # C
     119   2  36.0530976955  21.5508752039  40.6697419830       1 -0.1280  # F
     120   2  35.3131944489  21.6504755314  39.2280352356       1 -0.1559  # F
     121   1  36.1921773390  20.6664441491  38.4015644396       1  0.0465  # C
     122   2  35.5891834304  19.8262069151  38.6168894160       1 -0.1122  # F
     123   1  34.8747998120  21.1523020640  37.5285103300       1  0.5842  # C
     124   2  34.7284765314  21.9887129594  38.4532885290       1 -0.1563  # F
     125   2  34.7179756414  20.1306144284  37.3505898516       1 -0.1736  # F
     126   2  34.2269283502  21.4450769690  36.7053161161       1 -0.1844  # F
     127   3  37.2807555835  20.1711582409  37.9040126550       1 -0.2516  # GFOc
     128   1  37.9136754921  19.5256145539  38.4652125543       1  0.4557  # C
     129   2  37.7363050524  19.8850864054  39.6408611603       1 -0.1368  # F
     130   2  38.4475754943  18.5552188216  38.1466164796       1 -0.1393  # F
     131   1  39.1276973888  19.5881442809  38.3503329996       1  0.1062  # C
     132   2  38.6882192052  19.2295562739  39.2435044189       1 -0.1457  # F
     133   2  39.0757409698  20.2878486242  37.2674380075       1 -0.1482  # F
     134   4  40.2251699391  19.5313638342  38.1213891490       1  1.1345  # GGS
     135   5  41.1856021712  19.3435645892  38.0865847391       1 -0.6371  # GOs
     136   5  39.7249731815  19.5263610316  37.0122811574       1 -0.6371  # GOs
     137   5  40.6721693963  18.9349290821  38.9750110704       1 -0.6371  # GOs
     138   6  40.4970143307  18.4154993843  40.1761223711       1  1.0000  # Na
     139   1  35.2907898766  18.6047536069  41.0228310876       1  0.3275  # C
     140   2  35.2032327448  18.2624398252  41.8457870483       1 -0.1576  # F
     141   2  35.4408388991  19.2583798927  42.0085537892       1 -0.1576  # F
     142   1  35.8371940802  17.3912378821  41.2049679692       1  0.3275  # C
     143   2  36.4731426990  18.0009349006  42.0141135270       1 -0.1576  # F
     144   2  35.6411643575  16.5909601764  41.8364711547       1 -0.1576  # F
     145   1  36.2239664004  17.2309327482  40.3123643550       1  0.3275  # C
     146   2  35.6828410619  18.3702250164  40.4267176714       1 -0.1576  # F
     147   2  36.7911937925  16.4354164971  40.8713390973       1 -0.1576  # F
     148   1  36.5945089644  17.6578135953  39.6553969642       1  0.3275  # C
     149   2  36.5052125901  18.8759504794  39.7517946150       1 -0.1576  # F
     150   2  35.9188993189  18.2142628570  38.9148563887       1 -0.1576  # F
     151   1  37.5611452004  17.3055200628  39.1531968705       1  0.3275  # C
     152   2  37.8636688710  16.2346790585  38.7248768048       1 -0.1576  # F
     153   2  37.2016334463  17.3479408516  37.7640458771       1 -0.1576  # F
     154   1  38.2130010913  17.9596057639  39.6336415566       1  0.3275  # C
     155   2  37.4783952750  18.7418742064  39.6506085427       1 -0.1576  # F
     156   2  39.0343053969  18.0239737054  39.0726850127       1 -0.1576  # F
     157   1  38.5844351527  17.8181623024  40.8085453555       1  0.3275  # C
     158   2  39.4075694097  17.1121292465  41.2548722006       1 -0.1576  # F
     159   2  38.1713589670  18.4472580029  41.5592407804       1 -0.1576  # F
     160   1  39.5215556829  18.2524652268  40.7078677570       1  0.3275  # C
     161   2  39.7841282770  17.5512075888  40.3622272958       1 -0.1576  # F
     162   2  39.6859910076  18.7805568920  41.4955964397       1 -0.1576  # F
     163   1  40.1209428654  19.1381703852  40.5956625063       1  0.3275  # C
     164   2  40.3244245355  19.7727420248  39.8826625484       1 -0.1576  # F
     165   2  38.8262764095  18.8472092939  41.2237289760       1 -0.1576  # F
     166   1  40.8063860312  18.9749719724  41.1823974231       1  0.3275  # C
     167   2  41.7182160344  18.3047892115  41.1531355376       1 -0.1576  # F
     168   2  41.4692862715  19.4938322224  40.1122873079       1 -0.1576  # F
     169   1  40.7590791159  19.4449467078  42.3161391241       1  0.3275  # C
     170   2  41.7781585866  19.1892583128  42.4996857764       1 -0.1576  # F
     171   2  40.7874038265  20.2589707180  41.8435106530       1 -0.1576  # F
     172   1  40.3605981658  19.7218244403  43.2879244708       1  0.3275  # C
     173   2  40.6709596075  20.3519952581  42.5346859312       1 -0.1576  # F
     174   2  40.9966234244  19.7890760802  44.0611470725       1 -0.1576  # F
     175   1  39.3624143529  20.0322898843  43.9212380206       1  0.3275  # C
     176   2  38.6596697078  21.3695613739  43.9063827110       1 -0.1576  # F
     177   2  38.0816181923  19.6563991018  43.3859363040       1 -0.1576  # F
     178   1  40.1050621874  19.9454390117  44.9018548267       1  0.3275  # C
     179   2  39.6852844036  20.5510454508  45.7733674041       1 -0.1576  # F
     180   2  39.9344012745  18.8549401044  44.6391575840       1 -0.1576  # F
     181   1  41.3040028416  19.9935680075  45.1516962525       1  0.2465  # C
     182   2  42.2022405722  19.3529416305  44.7953610414       1 -0.1336  # F
     183   2  41.2009320797  19.2581429853  46.0591434034       1 -0.1336  # F
     184   1  41.6006180435  20.4959425905  45.7447602196       1  0.1317  # C
     185   2  41.0885393640  21.3288005939  46.2581493693       1 -0.1193  # F
     186   3  41.1194504243  20.4713070624  46.6330426508       1 -0.3109  # GFOc
     187   1  40.5361784215  20.8984652643  47.1307789186       1  0.4954  # C
     188   2  40.6361915726  19.6224057462  47.5585045295       1 -0.1280  # F
     189   2  39.6194511514  21.3913957506  47.0823821110       1 -0.1559  # F
     190   1  40.3055913207  22.0046886021  48.0206558434       1  0.0465  # C
     191   2  39.9680451089  22.7451784496  48.4890337358       1 -0.1122  # F
     192   1  41.2126525828  22.5609427420  47.0546072915       1  0.5842  # C
     193   2  40.8600786487  22.7155509901  46.1489391808       1 -0.1563  # F
     194   2  41.7052199762  21.4279569220  46.9733212428       1 -0.1736  # F
     195   2  42.4542612592  23.2945023623  47.2526242436       1 -0.1844  # F
     196   3  39.8227212790  21.5554938957  48.8083582133       1 -0.2516  # GFOc
     197   1  38.7442888486  22.1121232524  49.0949516211       1  0.4557  # C
     198   2  37.9645563759  21.8148292536  48.1647088906       1 -0.1368  # F
     199   2  38.6147529801  21.7331150539  49.7064242818       1 -0.1393  # F
     200   1  38.8798683363  23.2136315958  49.4357776952       1  0.1062  # C
     201   2  39.7883286524  23.5133067502  49.0521376751       1 -0.1457  # F
     202   2  38.1370204124  23.0112692702  50.4650329407       1 -0.1482  # F
     203   4  39.4240162571  24.2637308759  49.4445689500       1  1.1345  # GGS
     204   5  40.3438349154  24.1693253890  49.4960695015       1 -0.6371  # GOs
     205   5  39.5347836199  25.1037604308  48.5249534619       1 -0.6371  # GOs
     206   5  38.8934566318  24.7754871004  50.7196658098       1 -0.6371  # GOs
     207   6  37.7891478829  25.6811214752  50.9082576692       1  1.0000  # Na
     208   1  42.4575491730  20.3132854101  46.6731217771       1  0.3275  # C
     209   2  43.0921970143  20.0517464448  45.9312791476       1 -0.1576  # F
     210   2  42.8874783058  19.8069067695  47.1915124434       1 -0.1576  # F
     211   1  41.9081167283  20.7872906984  47.9801785862       1  0.3275  # C
     212   2  43.1577913018  20.6995832268  48.1333741670       1 -0.1576  # F
     213   2  41.1849896684  21.6763557834  48.4155940377       1 -0.1576  # F
     214   1  40.8674863138  20.1331450738  48.2622211858       1  0.3275  # C
     215   2  40.6394620901  19.3372647424  49.0680478375       1 -0.1576  # F
     216   2  40.1832302792  20.6896609530  48.9734984713       1 -0.1576  # F
     217   1  40.5021450129  19.6820632183  46.9076515760       1  0.3275  # C
     218   2  41.7402824997  18.8604039786  47.0323898475       1 -0.1576  # F
     219   2  40.5460297162  19.6349732181  45.6172376369       1 -0.1576  # F
     220   1  39.4953855934  19.4463476382  47.1307407666       1  0.3275  # C
     221   2  39.7784915268  18.7296843974  46.4287386518       1 -0.1576  # F
     222   2  38.9824232118  18.8422086881  47.6095250580       1 -0.1576  # F
     223   1  39.1691908615  20.6933363961  46.9477565188       1  0.3275  # C
     224   2  39.3814421574  21.4390531713  45.8047194004       1 -0.1576  # F
     225   2  40.0365228850  20.9309809333  47.9490450158       1 -0.1576  # F
     226   1  37.6511651005  20.6615102847  46.9641800982       1  0.3275  # C
     227   2  37.3896128947  19.4955346235  46.9393559834       1 -0.1576  # F
     228   2  36.7670595349  20.8223918933  47.7590154634       1 -0.1576  # F
     229   1  36.9854877035  21.2905121627  46.5008382610       1  0.3275  # C
     230   2  36.7636862510  20.4042635777  46.3415760221       1 -0.1576  # F
     231   2  36.2581960636  21.4922153386  46.0013719166       1 -0.1576  # F
     232   1  36.5690994739  21.9627251771  45.1081609749       1  0.3275  # C
     233   2  35.1666564153  22.4963636499  44.8667984591       1 -0.1576  # F
     234   2  36.9527032474  22.1943969341  44.0839289008       1 -0.1576  # F
     235   1  37.7917769685  22.1987985007  45.0191609289       1  0.3275  # C
     236   2  38.0667496215  21.0697423924  44.7834175988       1 -0.1576  # F
     237   2  37.1759257982  22.6034398465  45.9780771464       1 -0.1576  # F
     238   1  38.5271707296  22.9161983741  45.2770632763       1  0.3275  # C
     239   2  39.3532607474  23.5108348207  46.4911905930       1 -0.1576  # F
     240   2  38.6933254989  23.1837166060  44.0371692467       1 -0.1576  # F
     241   1  38.0200716596  23.5624392057  45.2293646708       1  0.3275  # C
     242   2  37.7799198919  23.8464560225  44.4249818352       1 -0.1576  # F
     243   2  38.5211125726  24.1727581639  45.4910971087       1 -0.1576  # F
     244   1  36.9296742608  23.2862628831  45.6235283572       1  0.3275  # C
     245   2  36.6273736760  23.0928751853  44.7453724418       1 -0.1576  # F
     246   2  36.2903709178  23.9509190590  45.7057647973       1 -0.1576  # F
     247   1  35.9881731156  22.6851444867  46.3236141886       1  0.3275  # C
     248   2  34.9096405281  23.3679779535  46.7909630710       1 -0.1576  # F
     249   2  36.5165128428  22.7814856272  47.1141780524       1 -0.1576  # F
     250   1  35.3874077720  21.7960857138  46.7527398108       1  0.2465  # C
     251   2  34.2457398697  21.6273628760  47.0924260609       1 -0.1336  # F
     252   2  35.8671628994  21.0191337930  46.8353957592       1 -0.1336  # F
     253   1  35.5896297462  22.8625420931  47.2539685266       1  0.1317  # C
     254   2  34.2824601171  23.4216017321  47.4903991874       1 -0.1193  # F
     255   3  35.9814324936  22.9806713924  48.3503554491       1 -0.3109  # GFOc
     256   1  36.1225747726  23.6382188693  49.2293269509       1  0.4954  # C
     257   2  36.2599959323  24.8353374128  49.9200935877       1 -0.1280  # F
     258   2  37.1386195908  24.3243038945  48.9318483644       1 -0.1559  # F
     259   1  35.2843237318  23.1950270700  49.8671374790       1  0.0465  # C
     260   2  35.5518941424  24.4681488589  50.2302235021       1 -0.1122  # F
     261   1  34.5597817834  22.7874386321  49.4066184802       1  0.5842  # C
     262   2  34.1720157951  22.8276990071  48.2660189841       1 -0.1563  # F
     263   2  33.7534840389  23.0749977718  49.3621154232       1 -0.1736  # F
     264   2  35.5895092217  21.6718918886  50.1782909675       1 -0.1844  # F
     265   3  35.3284327048  22.6213634319  50.8166505678       1 -0.2516  # GFOc
     266   1  35.9390001308  22.0354602263  51.6788259852       1  0.4557  # C
     267   2  35.8464642961  21.0704782798  52.0438116026       1 -0.1368  # F
     268   2  36.1367242650  21.9789360840  50.7889775013       1 -0.1393  # F
     269   1  36.3274854314  22.8584138907  52.4967687263       1  0.1062  # C
     270   2  37.3672079584  23.5198677946  52.1847073013       1 -0.1457  # F
     271   2  36.2825254976  22.7359995400  53.6383230843       1 -0.1482  # F
     272   4  36.2657268171  24.0479054176  51.7704246059       1  1.1345  # GGS
     273   5  36.3376608837  24.5229186842  50.8239577932       1 -0.6371  # GOs
     274   5  35.5495978161  23.2986121203  51.5944359691       1 -0.6371  # GOs
     275   5  36.0011456081  24.5966674183  52.7056671337       1 -0.6371  # GOs
     276   6  35.5853753019  24.3835326981  53.4829657433       1  1.0000  # Na
     277   1  36.8638778788  23.2583650891  47.4857989150       1  0.3275  # C
     278   2  36.3829487417  23.5932184062  46.5224465329       1 -0.1576  # F
     279   2  37.5086787329  22.8139059557  48.2720356209       1 -0.1576  # F
     280   1  37.9499854815  24.2010786167  47.5492219794       1  0.3275  # C
     281   2  39.1892003756  23.7648732754  47.7380034992       1 -0.1576  # F
     282   2  37.9920512724  25.3911685255  46.7716394963       1 -0.1576  # F
     283   1  38.6264091464  24.5817243300  48.2150387074       1  0.3275  # C
     284   2  39.2315531748  23.9353411780  48.4689077109       1 -0.1576  # F
     285   2  38.6576603823  25.5166467257  48.0703094679       1 -0.1576  # F
     286   1  38.4628484827  24.2142164758  49.3385214959       1  0.3275  # C
     287   2  38.3473861947  23.9833053146  50.5552997032       1 -0.1576  # F
     288   2  37.9612647097  25.4768624006  49.3693720487       1 -0.1576  # F
     289   1  37.8981885025  23.4757377421  48.9499761481       1  0.3275  # C
     290   2  37.9402326465  22.4050106782  48.8788568568       1 -0.1576  # F
     291   2  37.6944500528  23.8332786938  50.1027690519       1 -0.1576  # F
     292   1  37.8129996885  23.4127129795  47.6409372968       1  0.3275  # C
     293   2  36.7017853567  24.0757261235  47.7432279184       1 -0.1576  # F
     294   2  38.6017463607  24.0891995512  47.0541739314       1 -0.1576  # F
     295   1  37.4873569757  22.8091349033  46.7564302593       1  0.3275  # C
     296   2  37.8334180292  24.0345011675  46.0678672769       1 -0.1576  # F
     297   2  36.3720441649  22.5157276598  46.1579510471       1 -0.1576  # F
     298   1  37.6031393984  22.1894051825  47.2074186044       1  0.3275  # C
     299   2  37.5067995842  21.3697889391  47.0076561477       1 -0.1576  # F
     300   2  37.2697596112  22.0857626992  48.2017790074       1 -0.1576  # F
     301   1  38.3511805720  22.0798683807  47.5948521030       1  0.3275  # C
     302   2  38.5005501956  23.0088621400  48.2261752848       1 -0.1576  # F
     303   2  38.7038511547  21.3234284445  48.4259092189       1 -0.1576  # F
     304   1  38.9439515867  22.1753850213  46.9297338531       1  0.3275  # C
     305   2  40.0685152617  22.4316016345  47.1726516141       1 -0.1576  # F
     306   2  38.8576493457  21.1550726377  47.0073009818       1 -0.1576  # F
     307   1  39.0776513155  22.8931661127  46.3549615032       1  0.3275  # C
     308   2  38.0278892845  23.1240806881  46.1614575656       1 -0.1576  # F
     309   2  39.4407239906  22.7583075229  47.2297075055       1 -0.1576  # F
     310   1  39.9000189544  22.6430715279  45.3876938557       1  0.3275  # C
     311   2  40.8882366970  22.3325227267  45.1897384502       1 -0.1576  # F
     312   2  40.3413347964  23.4008822923  45.1767114436       1 -0.1576  # F
     313   1  38.8671473407  22.1681958575  44.9041596376       1  0.3275  # C
     314   2  38.4789980707  21.9338327350  45.5832795495       1 -0.1576  # F
     315   2  39.1386413617  22.2140961282  44.0159172562       1 -0.1576  # F
     316   1  38.0582358526  21.5893927279  44.1584953126       1  0.3275  # C
     317   2  37.1124781865  20.7617118476  44.2779737594       1 -0.1576  # F
     318   2  37.7459234267  23.1314158319  44.3226456713       1 -0.1576  # F
     319   1  37.8349733636  20.8932909511  43.5618639396       1  0.2465  # C
     320   2  38.3120297576  20.1338788325  44.0924718570       1 -0.1336  # F
     321   2  37.8589848593  20.5639976469  42.5379342944       1 -0.1336  # F
     322   1  37.0559507944  20.0057175332  43.7115467815       1  0.1317  # C
     323   2  36.5461723793  20.0341214950  42.8113948427       1 -0.1193  # F
     324   3  36.9910413821  20.5761052565  44.6832212904       1 -0.3109  # GFOc
     325   1  37.5226198692  20.9652800665  45.6011621075       1  0.4954  # C
     326   2  38.8507271847  21.0073554462  44.8806837090       1 -0.1280  # F
     327   2  36.7895347925  21.6462071454  45.9442064467       1 -0.1559  # F
     328   1  38.2344854617  20.0470693953  46.1218582127       1  0.0465  # C
     329   2  38.4877158573  20.2750056702  47.3078447426       1 -0.1122  # F
     330   1  38.8041195220  19.4746478821  45.5148971277       1  0.5842  # C
     331   2  38.6363264556  18.5733091814  44.6415385093       1 -0.1563  # F
     332   2  38.6465940155  19.1023187201  46.2837097631       1 -0.1736  # F
     333   2  39.7136454176  19.2981152300  46.0540850644       1 -0.1844  # F
     334   3  37.9066479521  18.8568447029  46.3935691365       1 -0.2516  # GFOc
     335   1  38.8331880897  18.0390513414  46.9655531044       1  0.4557  # C
     336   2  39.5847293821  17.4962933405  46.3890827639       1 -0.1368  # F
     337   2  38.7804410717  16.7246605816  47.4479729302       1 -0.1393  # F
     338   1  39.5820042423  18.7222808016  47.4358620761       1  0.1062  # C
     339   2  38.3959081462  18.0398189245  47.7432503787       1 -0.1457  # F
     340   2  39.5219315119  18.9132807018  48.3680381132       1 -0.1482  # F
     341   4  40.6343695310  18.0773026724  47.4491453189       1  1.1345  # GGS
     342   5  39.9218773689  17.2868628698  47.4360929334       1 -0.6371  # GOs
     343   5  40.9882882689  18.0770685731  46.5719183465       1 -0.6371  # GOs
     344   5  41.1020096299  18.3543505639  48.3602157593       1 -0.6371  # GOs
     345   6  41.6887731101  19.2821981198  48.6795662250       1  1.0000  # Na
     346   1  37.5847398361  19.1702202805  44.3276566070       1  0.3275  # C
     347   2  37.5493863884  18.4659478851  42.9496392215       1 -0.1576  # F
     348   2  36.6319692126  18.7998501210  44.6348768159       1 -0.1576  # F
     349   1  38.1404685064  19.6460607898  45.0321439721       1  0.3275  # C
     350   2  37.8036418301  18.8407890863  45.5309918288       1 -0.1576  # F
     351   2  38.6283413217  20.4069341294  45.7317982282       1 -0.1576  # F
     352   1  38.8803492059  20.1836533830  44.6354751593       1  0.3275  # C
     353   2  39.5159692513  21.0410495156  45.0988098306       1 -0.1576  # F
     354   2  38.8072600350  20.2476759955  43.0868345737       1 -0.1576  # F
     355   1  39.3024102591  19.4144772893  44.6858159508       1  0.3275  # C
     356   2  39.0064650817  19.2462568571  43.6646977425       1 -0.1576  # F
     357   2  39.5930394011  19.7548788645  45.5068162440       1 -0.1576  # F
     358   1  39.4202163256  18.8487482289  45.3450672455       1  0.3275  # C
     359   2  40.4467229567  18.7761982786  45.9010930593       1 -0.1576  # F
     360   2  40.4215501233  18.1599645889  45.1622697459       1 -0.1576  # F
     361   1  38.3934292600  18.2403393355  45.7224562199       1  0.3275  # C
     362   2  38.8525108545  17.5184761486  45.8636001185       1 -0.1576  # F
     363   2  38.0592725107  18.3559760109  46.4763515275       1 -0.1576  # F
     364   1  37.9493345679  17.9766824881  44.7114299919       1  0.3275  # C
     365   2  38.1849666339  18.6655620582  43.7452025574       1 -0.1576  # F
     366   2  37.8991307204  16.7355292249  44.2171261323       1 -0.1576  # F
     367   1  36.7271364923  18.1668767191  45.4207208255       1  0.3275  # C
     368   2  36.7755483403  17.4181938159  46.4953014279       1 -0.1576  # F
     369   2  36.7570502993  19.0546191028  45.9619947253       1 -0.1576  # F
     370   1  35.9785097639  18.3883461330  44.7959217049       1  0.3275  # C
     371   2  36.4395515583  18.4751462448  43.4251265772       1 -0.1576  # F