LAMMPS output created by EMC v9.4.4, build Jul 30 2020 09:28:04

        7364  atoms
6447 bonds
10220 angles
13377 dihedrals

           8  atom types
           7  bond types
          12  angle types
          14  dihedral types

             0    41.91517271  xlo xhi
             0    41.91517271  ylo yhi
             0    41.91517271  zlo zhi

Masses

       1   12.01115  # C
       2   18.99840  # F
       3   15.99940  # GFOc
       4   32.06400  # GGS
       5   15.99940  # GOs      
	   6    22.990 	 # Na
       7    1.00797  # WH
       8    15.99940 # WO

Atoms

1 1 1 0.3275 2.8014931091 38.0692918528 41.0030600419 # C
2 1 2 -0.1576 3.8243061757 37.9860095145 40.0808607093 # F
3 1 2 -0.1576 2.6328662258 39.0339024698 40.4834774192 # F
4 1 1 0.3275 2.1903165285 37.3320273090 41.5928267416 # C
5 1 2 -0.1576 3.0368661160 36.6755964263 42.0917792056 # F
6 1 2 -0.1576 1.6653527346 36.5927616155 41.1611859576 # F
7 1 1 0.3275 1.2610448205 37.6603542095 42.0985992256 # C
8 1 2 -0.1576 0.4476643636 37.2017905551 43.0471571383 # F
9 1 2 -0.1576 0.4037130313 37.3614972555 41.9121200203 # F
10 1 1 0.3275 1.6986142813 38.3026727240 41.8147910047 # C
11 1 2 -0.1576 2.7259913501 37.7680739479 42.5000532860 # F
12 1 2 -0.1576 0.7101734081 38.1879971399 40.9788900807 # F
13 1 1 0.3275 1.4100965758 39.2341912856 42.2150554062 # C
14 1 2 -0.1576 2.3693194644 39.3299101828 42.7019359033 # F
15 1 2 -0.1576 0.7943870134 39.9136703339 41.3501913500 # F
16 1 1 0.3275 1.1809956654 38.9204626675 43.1944757521 # C
17 1 2 -0.1576 0.7973457659 38.2649051410 42.5980318611 # F
18 1 2 -0.1576 0.8312694409 39.5940811882 43.9239478305 # F
19 1 1 0.3275 1.9618247692 38.0855016974 43.8459028523 # C
20 1 2 -0.1576 2.9284190681 37.5212297988 43.0194257270 # F
21 1 2 -0.1576 1.2324496986 37.3242297826 44.3568185871 # F
22 1 1 0.3275 2.3742202537 38.6631727306 44.6529984164 # C
23 1 2 -0.1576 1.6003676441 39.6131289523 44.7529250030 # F
24 1 2 -0.1576 2.7805915186 39.4521227573 44.2772850648 # F
25 1 1 0.3275 2.6611445911 38.2362003017 45.9103610419 # C
26 1 2 -0.1576 2.2548564200 36.9590555381 46.3066168764 # F
27 1 2 -0.1576 2.5435034512 39.0669279432 45.7821252817 # F
28 1 1 0.3275 3.9515273387 37.9090235102 46.0478758867 # C
29 1 2 -0.1576 4.3853792571 37.7197701761 47.1299076216 # F
30 1 2 -0.1576 4.9821349568 38.2541378977 46.1465290162 # F
31 1 1 0.3275 3.7793137869 37.0808502488 45.5499433130 # C
32 1 2 -0.1576 2.7336439625 37.2194592235 45.8932307852 # F
33 1 2 -0.1576 3.2439540332 36.9755558760 44.6778364462 # F
34 1 1 0.3275 4.7857203190 36.4640091284 45.2228837970 # C
35 1 2 -0.1576 4.4968557210 35.7117831136 45.5822404304 # F
36 1 2 -0.1576 4.8110137102 36.4879966285 44.1929403273 # F
37 1 1 0.3275 5.8849161388 37.1753415254 45.2463962607 # C
38 1 2 -0.1576 5.6272988869 37.2515631671 44.0455040749 # F
39 1 2 -0.1576 6.2380409134 36.0761758745 45.1222599689 # F
40 1 1 0.3275 7.1038774060 37.3073939568 45.7680945048 # C
41 1 2 -0.1576 7.7220748622 38.3487366875 45.2614347515 # F
42 1 2 -0.1576 7.0934954508 37.0690036881 47.0533824410 # F
43 1 1 0.2465 7.9801356312 36.3305693220 46.2182566635 # C
44 1 2 -0.1336 8.0159460459 36.2214318458 44.8752747306 # F
45 1 2 -0.1336 8.9312080873 36.7844147617 46.1733664103 # F
46 1 1 0.1317 8.2808962887 35.4827015140 47.0211358299 # C
47 1 2 -0.1193 8.4386300352 35.9105751415 47.8648069149 # F
48 1 3 -0.3109 9.3198714586 35.9479174435 46.8615403958 # GFOc
49 1 1 0.4954 10.3687517468 35.7267312573 46.5973098710 # C
50 1 2 -0.1280 10.3927389878 35.4494654275 45.6330832234 # F
51 1 2 -0.1559 10.4190538458 36.5978276248 46.0252634643 # F
52 1 1 0.0465 11.1848976253 34.6181544041 46.9539753901 # C
53 1 2 -0.1122 11.2891249658 34.1430727249 45.7719866860 # F
54 1 1 0.5842 11.9453244109 33.9087953225 47.3602222121 # C
55 1 2 -0.1563 12.8074425635 34.6439296171 47.4042938433 # F
56 1 2 -0.1736 11.5016305634 33.7278893626 46.5510899555 # F
57 1 2 -0.1844 11.9563854231 33.4302469067 48.0018849337 # F
58 1 3 -0.2516 11.8192532823 34.9683761372 48.0017514843 # GFOc
59 1 1 0.4557 11.4769048301 34.1936316022 49.2408903813 # C
60 1 2 -0.1368 12.5532759167 33.5378234111 49.3173477663 # F
61 1 2 -0.1393 10.7829190717 33.7185087222 49.1425810015 # F
62 1 1 0.1062 11.5310364834 35.1441084627 50.1455677004 # C
63 1 2 -0.1457 11.0544933155 35.0492720672 51.2792894599 # F
64 1 2 -0.1482 12.2047066375 35.8940071531 49.8785705181 # F
65 1 4 1.1345 12.1735458850 34.4571956278 50.8674437489 # GGS
66 1 5 -0.6371 12.1967808544 33.5428097438 51.0328065434 # GOs
67 1 5 -0.6371 13.1933097554 33.9143593327 49.8037294544 # GOs
68 1 5 -0.6371 12.7051855486 35.4281699871 51.6611821382 # GOs
69 1 6 1.0000 12.5162443922 36.5007408608 50.9995288948 # Na
70 1 1 0.3275 7.4582465184 34.5747927940 47.5647431695 # C
71 1 2 -0.1576 6.0319435644 34.4427317297 47.0780525481 # F
72 1 2 -0.1576 6.5953058153 34.6430543652 47.8352911796 # F
73 1 1 0.3275 8.5521958902 34.1916589518 48.1220038577 # C
74 1 2 -0.1576 7.5207465840 33.8566148006 48.4346062157 # F
75 1 2 -0.1576 9.5827165352 33.9511821524 49.0444948170 # F
76 1 1 0.3275 9.1247909661 34.7629043571 47.4939732325 # C
77 1 2 -0.1576 9.9949267812 34.3855342483 47.9586330391 # F
78 1 2 -0.1576 8.7239303210 34.4238212319 46.1000207577 # F
79 1 1 0.3275 9.3668344300 36.1135766050 48.0462952325 # C
80 1 2 -0.1576 8.4902874635 36.6086676852 48.3262291072 # F
81 1 2 -0.1576 10.2738699305 36.8162651074 48.4987134274 # F
82 1 1 0.3275 10.2295957828 37.0540689651 47.4790176166 # C
83 1 2 -0.1576 9.9809579044 37.4214384856 46.5387740441 # F
84 1 2 -0.1576 11.0978710417 37.1156745924 47.1761918198 # F
85 1 1 0.3275 10.2110524816 38.2703739512 47.7739602251 # C
86 1 2 -0.1576 10.3641564678 38.6944906181 48.8786473126 # F
87 1 2 -0.1576 8.9931820598 38.4911049316 47.4781748891 # F
88 1 1 0.3275 10.5775550991 38.9081968414 46.9936991478 # C
89 1 2 -0.1576 10.8025836696 38.2527739980 46.3557432671 # F
90 1 2 -0.1576 9.6898704976 39.0192154993 47.9480399604 # F
91 1 1 0.3275 10.5523460909 39.8138662888 46.4901038005 # C
92 1 2 -0.1576 9.7262872471 39.7210414870 45.8432025848 # F
93 1 2 -0.1576 11.2756977401 39.8311212063 45.3658805791 # F
94 1 1 0.3275 10.5198606266 41.0778900779 46.7796077290 # C
95 1 2 -0.1576 10.8133477568 41.3566843109 45.9111417158 # F
96 1 2 -0.1576 9.5326136295 41.2238373985 46.6046920891 # F
97 1 1 0.3275 10.9792457414 41.7854841348 47.7820395964 # C
98 1 2 -0.1576 12.4076869004 41.2531561702 48.3364445453 # F
99 1 2 -0.1576 10.3102840562 41.4051775933 48.8082989970 # F
100 1 1 0.3275 10.6870413107 42.9987056852 47.9443628076 # C
101 1 2 -0.1576 10.5690278755 43.8644634299 47.6155165258 # F
102 1 2 -0.1576 9.6140077858 42.6807148715 47.4012085137 # F
103 1 1 0.3275 10.2369154070 43.1146771362 49.0640840692 # C
104 1 2 -0.1576 10.0223079014 43.3074392086 50.6677795955 # F
105 1 2 -0.1576 9.0539599198 43.0274543094 48.4103755597 # F
106 1 1 0.3275 11.5895306804 42.5031303143 49.6205614976 # C
107 1 2 -0.1576 12.0987201533 41.4692674860 49.3667428034 # F
108 1 2 -0.1576 12.4203024887 41.9909497602 50.0377998014 # F
109 1 1 0.3275 12.1539922302 43.5419628893 49.3451603122 # C
110 1 2 -0.1576 11.4532518957 43.9363825838 49.7198323296 # F
111 1 2 -0.1576 12.9110561911 44.2225575416 49.9500918047 # F
112 1 1 0.2465 12.9770331467 43.7074972264 48.9756721796 # C
113 1 2 -0.1336 13.7989202353 43.5687853214 50.0480657789 # F
114 1 2 -0.1336 13.0673450329 42.5689976463 48.7852537936 # F
115 1 1 0.1317 12.4827048226 44.6023853262 47.9733031882 # C
116 1 2 -0.1193 12.1251403468 44.2428410717 46.6682516046 # F
117 1 3 -0.3109 11.6380338176 44.5954534716 48.5940413163 # GFOc
118 1 1 0.4954 11.0033627334 43.7779218349 48.8544674701 # C
119 1 2 -0.1280 10.6675981648 43.2576489689 50.1638548682 # F
120 1 2 -0.1559 9.8454777444 43.8919624689 48.6683154366 # F
121 1 1 0.0465 11.9363282145 43.0868309842 48.1640438829 # C
122 1 2 -0.1122 12.5343860084 41.7727136372 48.2723462079 # F
123 1 1 0.5842 11.7123493021 42.7575683863 47.0977651590 # C
124 1 2 -0.1563 12.0833272473 41.8573667028 46.7903497911 # F
125 1 2 -0.1736 10.9332357669 42.2050607032 47.1728215539 # F
126 1 2 -0.1844 11.2172138984 43.4119450724 46.4572695047 # F
127 1 3 -0.2516 12.6147542407 43.5941993992 48.1757317007 # GFOc
128 1 1 0.4557 12.9870885294 44.7220425704 48.8026063519 # C
129 1 2 -0.1368 13.8310474942 44.9100465671 49.5384500927 # F
130 1 2 -0.1393 12.3959845822 44.6561050168 49.8059549261 # F
131 1 1 0.1062 12.9496213600 45.5215083533 47.8286545897 # C
132 1 2 -0.1457 12.6923090994 46.2431360205 48.4423352769 # F
133 1 2 -0.1482 13.0376120371 44.2158989902 47.2813627837 # F
134 1 4 1.1345 13.1457327076 45.9817877177 47.0427249250 # GGS
135 1 5 -0.6371 13.6152410887 46.1485844416 46.4611813707 # GOs
136 1 5 -0.6371 14.0785268955 46.2484281824 47.3615104186 # GOs
137 1 5 -0.6371 12.3789220745 46.7390479508 47.1901989919 # GOs
138 1 6 1.0000 11.3359220358 47.1631339043 47.0197584648 # Na
139 1 1 0.3275 13.6502895983 44.9380074172 47.9969057667 # C
140 1 2 -0.1576 13.9233030784 45.1329921374 47.1189837503 # F
141 1 2 -0.1576 14.3672989365 44.0898008703 48.2345746063 # F
142 1 1 0.3275 13.9058728017 45.8058672212 48.7112790588 # C
143 1 2 -0.1576 15.0494403055 45.7512183980 48.8067145896 # F
144 1 2 -0.1576 13.9280342698 46.6953960569 48.1003457703 # F
145 1 1 0.3275 13.3405647876 45.6440844483 49.7218686364 # C
146 1 2 -0.1576 12.4070590673 45.2779562248 49.3852978513 # F
147 1 2 -0.1576 14.2602651912 45.3265887616 50.4329935068 # F
148 1 1 0.3275 12.8261464754 46.5027202605 49.4058356954 # C
149 1 2 -0.1576 11.8854693936 46.6015483720 48.7557058573 # F
150 1 2 -0.1576 13.0371377837 46.7876309257 48.2753979625 # F
151 1 1 0.3275 13.2721541245 47.2476248989 50.0946921031 # C
152 1 2 -0.1576 13.5921404953 46.7174958222 50.7057887342 # F
153 1 2 -0.1576 14.2486592646 47.3846419566 50.1292717164 # F
154 1 1 0.3275 12.8718063606 48.4110075222 50.3266406628 # C
155 1 2 -0.1576 13.0456533893 49.2701500792 50.8054970731 # F
156 1 2 -0.1576 12.5847230833 48.7687702790 49.2844090100 # F
157 1 1 0.3275 12.3085338677 47.8816711362 51.6260122267 # C
158 1 2 -0.1576 13.2746822924 47.8169657541 52.4138589187 # F
159 1 2 -0.1576 12.7965492313 46.7715676102 51.5375252160 # F
160 1 1 0.3275 11.8436042240 48.7465101539 52.4596063683 # C
161 1 2 -0.1576 11.4926734815 49.7543710885 52.1491976909 # F
162 1 2 -0.1576 12.2264441716 49.6735037202 52.6840856957 # F
163 1 1 0.3275 11.7024646788 48.3893303633 53.5504911575 # C
164 1 2 -0.1576 10.7673062968 48.8533466038 53.9238584323 # F
165 1 2 -0.1576 11.8262078796 47.4152223794 53.3897227320 # F
166 1 1 0.3275 12.0798586892 49.1724036859 54.1001586921 # C
167 1 2 -0.1576 12.7758873202 50.3070880279 54.0489984168 # F
168 1 2 -0.1576 11.8356308103 49.3279727023 55.0211053696 # F
169 1 1 0.3275 12.7585359220 48.0923404581 54.5078855588 # C
170 1 2 -0.1576 13.7645398239 48.0903154857 54.1287441845 # F
171 1 2 -0.1576 12.7445547292 48.0934196294 55.4682556106 # F
172 1 1 0.3275 12.0333112413 47.5193152653 54.1512170891 # C
173 1 2 -0.1576 12.6132556341 47.9145085945 53.2208325212 # F
174 1 2 -0.1576 12.1853133322 46.7442533767 54.0420458634 # F
175 1 1 0.3275 10.8590913432 47.6650597855 54.6739598385 # C
176 1 2 -0.1576 10.5013399581 47.0469561449 55.6466830618 # F
177 1 2 -0.1576 10.9839763210 48.6334449678 55.3842708853 # F
178 1 1 0.3275 10.6346277924 46.7256609451 53.7234115669 # C
179 1 2 -0.1576 10.1032584336 45.9510372894 54.3812119680 # F
180 1 2 -0.1576 10.9175314291 45.7233906921 53.5657039751 # F
181 1 1 0.2465 9.9214596071 46.9945290213 53.1324988598 # C
182 1 2 -0.1336 8.9452260004 47.7331890403 53.7562944378 # F
183 1 2 -0.1336 9.6924847077 46.3222061907 52.7280081873 # F
184 1 1 0.1317 10.2355223693 47.6629793527 52.1730843442 # C
185 1 2 -0.1193 10.6148318638 46.2962770885 51.9194427505 # F
186 1 3 -0.3109 10.8418074772 48.1213211265 51.3208720810 # GFOc
187 1 1 0.4954 11.1880616877 48.5489936496 50.1486715479 # C
188 1 2 -0.1280 12.0149231068 49.1885983047 50.6750289497 # F
189 1 2 -0.1559 10.9790724424 49.9660741221 49.8106745394 # F
190 1 1 0.0465 10.3641871099 47.7617675893 49.6740646199 # C
191 1 2 -0.1122 9.8748294310 46.6652127232 50.5282771236 # F
192 1 1 0.5842 10.5544386407 48.1770023748 48.8116365591 # C
193 1 2 -0.1563 10.4305987609 47.5117799970 48.3579542047 # F
194 1 2 -0.1736 10.5117900711 48.6187439934 48.1900758984 # F
195 1 2 -0.1844 9.8731743321 49.0529360720 49.1202247147 # F
196 1 3 -0.2516 9.3884647965 48.3382084855 49.4889408299 # GFOc
197 1 1 0.4557 8.4871836203 47.8504630573 50.2943120171 # C
198 1 2 -0.1368 8.4278989521 47.0041749809 50.0910056819 # F
199 1 2 -0.1393 8.7339919672 48.3110679228 51.1120507172 # F
200 1 1 0.1062 7.6035956472 48.3276524422 50.8730513062 # C
201 1 2 -0.1457 6.6810027966 48.6485828600 50.0924821556 # F
202 1 2 -0.1482 7.1377276533 47.8125255353 52.1678433877 # F
203 1 4 1.1345 7.7202433646 49.3934680953 51.7077612260 # GGS
204 1 5 -0.6371 8.3245363485 49.5137680023 52.4326221750 # GOs
205 1 5 -0.6371 6.9173803204 48.9681749940 52.8511872254 # GOs
206 1 5 -0.6371 7.0305347246 49.9844566696 51.1824828471 # GOs
207 1 6 1.0000 6.4411425720 50.8542931030 50.7998127919 # Na
208 1 1 0.3275 9.2314120734 48.5058027123 52.5825754747 # C
209 1 2 -0.1576 8.2798702288 47.3016145279 52.8639082691 # F
210 1 2 -0.1576 8.8587856779 49.2105470917 51.9663561536 # F
211 1 1 0.3275 9.6613026793 48.6478965465 53.3949266272 # C
212 1 2 -0.1576 10.3301779307 48.0314346914 53.8623063491 # F
213 1 2 -0.1576 8.6445588477 48.8614843984 53.9601908971 # F
214 1 1 0.3275 9.8563281689 49.9334102426 53.4869569841 # C
215 1 2 -0.1576 10.8124802276 50.3548554785 53.2743600982 # F
216 1 2 -0.1576 10.9259113075 49.8672331791 54.3161964254 # F
217 1 1 0.3275 8.7832098812 49.9680836574 53.7356655959 # C
218 1 2 -0.1576 9.2051113719 50.0838686589 54.5375875782 # F
219 1 2 -0.1576 8.0235561422 48.8216591433 53.5610242926 # F
220 1 1 0.3275 8.2206939593 50.9392430658 53.8603047974 # C
221 1 2 -0.1576 8.9151242549 51.6806962101 53.1604772386 # F
222 1 2 -0.1576 7.9532864867 52.0161764245 54.3036789055 # F
223 1 1 0.3275 7.3629973559 50.8823702607 53.2507237786 # C
224 1 2 -0.1576 7.4553212958 50.9427703828 52.1482517592 # F
225 1 2 -0.1576 6.8051774696 49.9238859602 53.3040100393 # F
226 1 1 0.3275 6.7387952089 51.8854300459 53.1595662627 # C
227 1 2 -0.1576 6.4489780697 52.2200888773 52.3654546717 # F
228 1 2 -0.1576 7.7713480443 51.5531592624 53.2911974878 # F
229 1 1 0.3275 6.1003142736 51.9454291110 53.8069611078 # C
230 1 2 -0.1576 6.7901440088 51.9338699967 54.8716731267 # F
231 1 2 -0.1576 5.3178723807 51.4259323105 53.6662641686 # F
232 1 1 0.3275 5.2963548395 52.9491655591 54.0307104121 # C
233 1 2 -0.1576 4.5475320677 52.0072324361 53.7136167615 # F
234 1 2 -0.1576 5.0729713334 53.8567366958 54.7731187971 # F
235 1 1 0.3275 4.7427048096 54.0185459895 53.5767015007 # C
236 1 2 -0.1576 4.7889236423 53.8406025374 52.6807432619 # F
237 1 2 -0.1576 3.9985313519 53.6452163417 53.5922106367 # F
238 1 1 0.3275 4.5115099708 55.0977596751 53.7607232001 # C
239 1 2 -0.1576 4.6624774555 54.7093737946 54.5700142646 # F
240 1 2 -0.1576 3.9859402049 55.6999202933 54.2034833527 # F
241 1 1 0.3275 4.5556011921 55.5573123298 53.0022646728 # C
242 1 2 -0.1576 5.5320611447 55.5529832182 52.9324031048 # F
243 1 2 -0.1576 3.8457962493 54.6278162765 52.5999742544 # F
244 1 1 0.3275 4.4565757815 56.4380821780 52.7377966119 # C
245 1 2 -0.1576 3.3365151386 56.5103427510 52.0311220800 # F
246 1 2 -0.1576 5.0423712938 56.3940622405 51.8343419594 # F
247 1 1 0.3275 4.7857653805 57.3566282760 53.2963010400 # C
248 1 2 -0.1576 4.6863389758 57.7196622687 52.4821250647 # F
249 1 2 -0.1576 5.7326530271 57.2798021557 53.5476093193 # F
250 1 1 0.2465 4.3421361253 56.9296248849 54.1889163885 # C
251 1 2 -0.1336 4.3120933746 57.1787661921 55.2732492746 # F
252 1 2 -0.1336 4.9418584479 56.3048329782 53.7832041257 # F
253 1 1 0.1317 3.2484636403 56.8977126650 54.3512324011 # C
254 1 2 -0.1193 3.1728302942 57.2054181642 55.2898886659 # F
255 1 3 -0.3109 2.6660631313 57.3180702158 53.5212620427 # GFOc
256 1 1 0.4954 2.7980093076 57.0244332056 52.4563175155 # C
257 1 2 -0.1280 3.2601283864 56.0884759434 53.0858952356 # F
258 1 2 -0.1559 4.0142586117 57.9461835389 51.8476149441 # F
259 1 1 0.0465 1.8408804583 56.5258101916 52.3920931496 # C
260 1 2 -0.1122 2.9367289489 55.8428346446 52.5035543322 # F
261 1 1 0.5842 1.0960156233 56.0802177438 52.5382009705 # C
262 1 2 -0.1563 0.2179697644 55.2954976152 53.1404807595 # F
263 1 2 -0.1736 1.6193261314 55.1013000771 51.9901727673 # F
264 1 2 -0.1844 0.1792531609 56.0922116187 52.3347433192 # F
265 1 3 -0.2516 0.9411015241 57.4981758569 52.1503966925 # GFOc
266 1 1 0.4557 0.6043897492 58.1902593020 51.0217619422 # C
267 1 2 -0.1368 -0.1282295396 58.0024747937 50.0085995867 # F
268 1 2 -0.1393 1.1331998406 58.0608694655 50.0048470221 # F
269 1 1 0.1062 0.7797176998 59.5743952765 51.8808761488 # C
270 1 2 -0.1457 1.0558373746 60.4076961956 51.2978637401 # F
271 1 2 -0.1482 1.2578817350 60.4305726919 52.7835269729 # F
272 1 4 1.1345 -0.3514339039 59.5248341096 52.2700513543 # GGS
273 1 5 -0.6371 -1.3589385473 59.3638255407 52.4938917407 # GOs
274 1 5 -0.6371 -0.4951606662 59.6045290108 51.4257343604 # GOs
275 1 5 -0.6371 0.5284601440 59.0008892156 53.1026063393 # GOs
276 1 6 1.0000 1.6788312153 58.9167192208 53.4170635647 # Na
277 1 1 0.3275 3.0171765335 55.8610202698 54.4817609209 # C
278 1 2 -0.1576 3.0157891712 55.3065517497 53.6532895805 # F
279 1 2 -0.1576 4.3705480938 55.8387586300 55.0627664066 # F
280 1 1 0.3275 2.2299841897 55.8958665280 55.1067619066 # C
281 1 2 -0.1576 1.8434397551 54.8294999471 54.7213072238 # F
282 1 2 -0.1576 1.6727976328 56.3949272744 55.1698812377 # F
283 1 1 0.3275 2.4428524710 56.0418164231 56.1341156907 # C
284 1 2 -0.1576 2.0391667515 55.2786440268 56.0811873729 # F
285 1 2 -0.1576 2.4263721178 56.5476401626 57.1233133804 # F
286 1 1 0.3275 2.7583354286 57.1072964239 55.9607370518 # C
287 1 2 -0.1576 2.2119327569 57.3377166737 56.5094201505 # F
288 1 2 -0.1576 3.2359233415 57.6288961593 56.9671916685 # F
289 1 1 0.3275 3.1374171950 57.8176769223 55.0662016975 # C
290 1 2 -0.1576 4.5486860091 58.1327663468 54.7887101362 # F
291 1 2 -0.1576 2.5903852110 57.7795816502 54.3010689587 # F
292 1 1 0.3275 2.8712142056 58.8008208405 55.6983956438 # C
293 1 2 -0.1576 3.6678859417 59.4325587907 55.5592022780 # F
294 1 2 -0.1576 1.8855347400 59.6845246837 55.7834897743 # F
295 1 1 0.3275 3.1800201590 58.4600644227 56.3521636248 # C
296 1 2 -0.1576 2.6373135605 59.0606198804 57.7309467428 # F
297 1 2 -0.1576 4.0133509917 58.5203977988 55.9223044036 # F
298 1 1 0.3275 3.8457024762 57.1755520060 55.9293272876 # C
299 1 2 -0.1576 4.3726540067 56.7261250431 56.2129603658 # F
300 1 2 -0.1576 2.9085484745 56.9642666374 56.8732781912 # F
301 1 1 0.3275 3.7461063807 57.0420150429 54.7783043112 # C
302 1 2 -0.1576 2.6337706342 56.8364902874 54.2516194730 # F
303 1 2 -0.1576 4.4374202521 56.3564601453 54.7982540547 # F
304 1 1 0.3275 3.8368627614 58.2876328225 53.5292321949 # C
305 1 2 -0.1576 4.3211907251 58.7801509269 53.0298400587 # F
306 1 2 -0.1576 4.1598770686 59.0752961411 54.4627246247 # F
307 1 1 0.3275 2.4574180043 58.8263622241 52.8535238489 # C
308 1 2 -0.1576 2.2755154411 59.9168549836 52.7686160842 # F
309 1 2 -0.1576 2.2502409757 58.1016787457 52.3126960463 # F
310 1 1 0.3275 2.3087683779 57.8425783539 53.5276587029 # C
311 1 2 -0.1576 2.4965339336 58.5586089719 54.0505741818 # F
312 1 2 -0.1576 1.5459920958 56.9997195215 53.0012484579 # F
313 1 1 0.3275 3.5822545269 57.6611185389 53.9253654438 # C
314 1 2 -0.1576 3.8293724215 57.8052308093 54.6844837637 # F
315 1 2 -0.1576 3.5110031542 56.6439162560 53.7831746827 # F
316 1 1 0.3275 5.1381959261 58.3209580145 53.6485856254 # C
317 1 2 -0.1576 5.6329675601 59.3288681097 53.2838151677 # F
318 1 2 -0.1576 6.1981645071 57.4866150344 53.5518537066 # F
319 1 1 0.2465 5.3756589796 58.9444369235 54.3236202654 # C
320 1 2 -0.1336 6.0564342843 58.7584187407 55.2591782591 # F
321 1 2 -0.1336 5.3952022954 59.6674881248 53.9299907226 # F
322 1 1 0.1317 4.3602363065 59.6603828544 54.7390351331 # C
323 1 2 -0.1193 4.6511953553 59.8138280715 55.4796667638 # F
324 1 3 -0.3109 3.0846119533 59.1493525969 54.8279817054 # GFOc
325 1 1 0.4954 1.6594251542 59.4793895337 54.4469339085 # C
326 1 2 -0.1280 1.8283856347 60.3203504947 53.7199614422 # F
327 1 2 -0.1559 1.4816653141 58.1324319702 53.9517251414 # F
328 1 1 0.0465 0.9257625228 59.0479344985 55.2612397037 # C
329 1 2 -0.1122 -0.2203576461 59.6358423301 55.0111102626 # F
330 1 1 0.5842 1.0453073806 58.2806998174 55.2749396502 # C
331 1 2 -0.1563 2.0330857734 58.1740543077 55.1423283946 # F
332 1 2 -0.1736 1.2516227021 56.9214757790 55.8899496490 # F
333 1 2 -0.1844 -0.4232631892 58.2877990688 54.9146980189 # F
334 1 3 -0.2516 1.0897594710 59.3027126894 56.2653687685 # GFOc
335 1 1 0.4557 0.2304614165 58.7496092943 57.0621220707 # C
336 1 2 -0.1368 1.2977512165 58.0967105539 57.7058991342 # F
337 1 2 -0.1393 0.0311226285 57.8884358272 56.1913533133 # F
338 1 1 0.1062 -0.5050948831 59.2066217422 57.1987586907 # C
339 1 2 -0.1457 -0.1557636460 59.9221469199 57.6752569642 # F
340 1 2 -0.1482 -0.0833911595 59.2119108873 56.3949777526 # F
341 1 4 1.1345 -1.2256959854 59.0281878112 57.8818474079 # GGS
342 1 5 -0.6371 -2.7798002123 58.8758799275 57.8259029361 # GOs
343 1 5 -0.6371 -1.5416247182 59.4966252967 57.1516171829 # GOs
344 1 5 -0.6371 -0.8876708990 58.4002576692 58.9080435377 # GOs
345 1 6 1.0000 0.1163123961 57.8159246789 59.6024668757 # Na
346 1 1 0.3275 4.3688978603 60.0511200101 53.8583240051 # C
347 1 2 -0.1576 4.6937411417 59.6854921363 53.3799796297 # F
348 1 2 -0.1576 3.1514512362 59.3392079672 54.1005793524 # F
349 1 1 0.3275 4.0457483629 60.8422926230 53.2606171818 # C
350 1 2 -0.1576 2.8284719928 61.1528539018 53.1075866139 # F
351 1 2 -0.1576 4.2020482878 61.9105272602 52.8886560751 # F
352 1 1 0.3275 5.2563911267 60.2194192415 52.8270099385 # C
353 1 2 -0.1576 5.3592934803 60.2153441552 51.8560178650 # F
354 1 2 -0.1576 5.5778839003 60.2949685660 53.9192328795 # F
355 1 1 0.3275 4.6593951273 59.4545292250 52.1155135127 # C
356 1 2 -0.1576 4.2628842717 60.4589888662 51.5406663196 # F
357 1 2 -0.1576 3.6703721479 58.4201329095 52.4670982243 # F
358 1 1 0.3275 5.6072320653 58.8407451835 51.7538009034 # C
359 1 2 -0.1576 5.7587764313 59.5377068900 50.9114063110 # F
360 1 2 -0.1576 6.2231210971 58.0430606312 51.6701646245 # F
361 1 1 0.3275 6.2326031367 58.3888054062 52.7900417014 # C
362 1 2 -0.1576 7.5062109552 58.1119356386 52.4963599810 # F
363 1 2 -0.1576 5.2645794581 58.0757993035 52.8861646620 # F
364 1 1 0.3275 6.9253587982 59.3303921006 53.6201737516 # C
365 1 2 -0.1576 6.4614711482 58.6507019909 53.9470128025 # F
366 1 2 -0.1576 6.8096077729 59.9210577245 54.4975904686 # F
367 1 1 0.3275 7.7258652975 58.5679151520 53.4177614098 # C
368 1 2 -0.1576 7.6849897535 58.9553808392 52.5653533648 # F
369 1 2 -0.1576 8.3185966865 58.3953385258 53.9126023977 # F
370 1 1 0.3275 7.6351859830 57.4131524411 53.7067286942 # C
371 1 2 -0.1576 7.9191355179 57.2489135849 52.6746686469 # F
372 1 2 -0.1576 8.4022267735 57.0540922031 53.8329192124 # F
373 1 1 0.3275 7.2651059846 56.7057648413 53.8641713551 # C
374 1 2 -0.1576 7.6109579836 55.7351085519 53.7338233000 # F
375 1 2 -0.1576 7.6973494667 57.2742101585 54.9935666844 # F
376 1 1 0.3275 6.4329047840 56.3957876086 53.4788603026 # C
377 1 2 -0.1576 6.7041594175 55.6297631845 52.8487887318 # F
378 1 2 -0.1576 6.5908140827 55.3055249207 54.3790196492 # F
379 1 1 0.3275 6.0151875565 56.7792261256 54.1497430190 # C
380 1 2 -0.1576 6.4035087034 57.8301533709 54.7985651447 # F
381 1 2 -0.1576 5.6015163915 56.3684331927 54.9261632017 # F
382 1 1 0.3275 5.2839938976 55.9234832720 53.3960967724 # C
383 1 2 -0.1576 5.3296490806 55.0264977815 53.8115647866 # F
384 1 2 -0.1576 3.9515828922 55.8661314944 52.8222392913 # F
385 1 1 0.3275 6.0641212604 56.5842044488 52.4179137801 # C
386 1 2 -0.1576 6.5975052070 57.4654349013 52.6299782859 # F
387 1 2 -0.1576 6.6951482905 56.3139591402 52.4554613819 # F
388 1 1 0.2465 5.8486597589 56.2881380265 51.6894827221 # C
389 1 2 -0.1336 5.0442156823 55.5895931245 51.7913162017 # F
390 1 2 -0.1336 6.1961957817 57.0639943179 51.0567869427 # F
391 1 1 0.1317 5.8336727462 55.6665064328 50.7871772534 # C
392 1 2 -0.1193 6.8254828422 55.5495910551 51.4676285149 # F
393 1 3 -0.3109 5.5458945227 54.9014918150 50.9602865305 # GFOc
394 1 1 0.4954 5.4028286159 53.7965444874 50.8244610749 # C
395 1 2 -0.1280 4.6164805805 53.3855821820 50.5212425154 # F
396 1 2 -0.1559 4.9724454475 53.5929024924 51.8148649797 # F
397 1 1 0.0465 6.1031290400 53.3759890088 50.2778560155 # C
398 1 2 -0.1122 6.2300889369 52.9446991152 49.3967142598 # F
399 1 1 0.5842 6.9840801927 53.8951221046 50.4018499032 # C
400 1 2 -0.1563 7.8756690500 53.5010429820 49.8986421140 # F
401 1 2 -0.1736 7.1942806559 54.6040984044 51.2496849570 # F
402 1 2 -0.1844 7.1416235591 52.9999303080 50.3988152481 # F
403 1 3 -0.2516 6.4359708156 53.1636365508 51.1317804988 # GFOc
404 1 1 0.4557 6.7041365491 53.6243835391 52.4929298711 # C
405 1 2 -0.1368 7.2636573548 52.6188296575 52.3684004634 # F
406 1 2 -0.1393 6.4737128214 54.4355373249 52.6961908325 # F
407 1 1 0.1062 6.2667339010 54.0142142239 53.6046331115 # C
408 1 2 -0.1457 5.8164466652 54.2032983621 52.9296132105 # F
409 1 2 -0.1482 5.8473925629 54.8500084252 53.8828640690 # F
410 1 4 1.1345 6.2541451598 53.4907368395 54.5037746709 # GGS
411 1 5 -0.6371 5.6426828748 54.0721217448 55.1848348163 # GOs
412 1 5 -0.6371 6.2065294222 52.8197371096 55.1268211531 # GOs
413 1 5 -0.6371 7.0697078140 53.1925262223 54.7730569168 # GOs
414 1 6 1.0000 7.8186470735 53.5071967552 54.9317518781 # Na
415 1 1 0.3275 5.6551183383 56.3033600559 49.8536754567 # C
416 1 2 -0.1576 6.0437485167 55.5945420387 49.4683132463 # F
417 1 2 -0.1576 5.3901452912 57.0871035636 50.5473057626 # F
418 1 1 0.3275 4.6281012373 55.7262470352 49.4208192559 # C
419 1 2 -0.1576 4.8748340372 55.1500560024 48.7814167326 # F
420 1 2 -0.1576 4.5621148867 56.7103785149 48.8302073228 # F
421 1 1 0.3275 3.7096877142 55.6425559320 50.2615137209 # C
422 1 2 -0.1576 2.8716057452 55.4643009489 49.3197507546 # F
423 1 2 -0.1576 3.9891458363 54.7728297072 50.8611220426 # F
424 1 1 0.3275 3.5137794818 56.1057008463 51.1590627390 # C
425 1 2 -0.1576 4.1958052329 56.6503587108 51.8175295807 # F
426 1 2 -0.1576 3.0892578443 55.3773678396 51.3814053086 # F
427 1 1 0.3275 3.1358127231 56.9060024897 50.8465560605 # C
428 1 2 -0.1576 3.2112685525 57.7558929668 51.6517495479 # F
429 1 2 -0.1576 2.2749608648 56.2106959936 50.1280885154 # F
430 1 1 0.3275 3.5490993010 57.1504566937 49.5389406235 # C
431 1 2 -0.1576 3.6144048492 56.1402602938 49.8476624005 # F
432 1 2 -0.1576 3.1930407737 56.8935348053 48.9922419852 # F
433 1 1 0.3275 3.7731605302 57.9823961617 49.5467000902 # C
434 1 2 -0.1576 3.3745509351 58.2013863827 50.6399259421 # F
435 1 2 -0.1576 4.7787968325 58.8432507306 49.1992477453 # F
436 1 1 0.3275 3.0093922415 58.6325169208 48.6061734174 # C
437 1 2 -0.1576 3.8400599352 58.9952994629 47.5317336717 # F
438 1 2 -0.1576 1.9803877845 58.3441123554 48.2642392106 # F
439 1 1 0.3275 2.2917541753 59.2503635571 49.4123546096 # C
440 1 2 -0.1576 2.6496329920 60.1740989650 49.0592399197 # F
441 1 2 -0.1576 1.4412415162 59.2741909498 50.6452458571 # F
442 1 1 0.3275 2.1064646095 59.1218471754 48.6039179902 # C
443 1 2 -0.1576 1.9848801858 58.0037954058 49.2642558311 # F
444 1 2 -0.1576 1.4171618178 59.8734211161 48.4389856435 # F
445 1 1 0.3275 3.0026567486 59.7216822639 48.3187530013 # C
446 1 2 -0.1576 2.9791602795 59.2207874979 47.3047046461 # F
447 1 2 -0.1576 2.9801391182 60.7849229225 48.0958290463 # F
448 1 1 0.3275 3.7707625872 60.3838593384 48.4611318115 # C
449 1 2 -0.1576 4.5988990015 60.1280551986 49.0844125896 # F
450 1 2 -0.1576 3.4893397825 61.5033716984 48.9016545622 # F
451 1 1 0.3275 4.1746728851 60.9689003686 47.3421500972 # C
452 1 2 -0.1576 4.2143418769 61.6479690077 46.7902615191 # F
453 1 2 -0.1576 5.3318374463 60.2028662538 47.4127502969 # F
454 1 1 0.3275 3.1621217674 61.6146321616 46.9313602515 # C
455 1 2 -0.1576 2.8133666996 62.6821744680 47.1960935461 # F
456 1 2 -0.1576 2.4020815030 61.4704735696 47.4150016247 # F
457 1 1 0.2465 2.7886264465 62.0803957502 46.1381610019 # C
458 1 2 -0.1336 2.5955267326 62.9414325747 45.4213601326 # F
459 1 2 -0.1336 1.6431879753 61.5328025707 46.6812005300 # F
460 1 1 0.1317 3.5613878853 61.3914677094 45.4300980969 # C
461 1 2 -0.1193 3.7578046774 61.4172572693 46.5230259044 # F
462 1 3 -0.3109 4.5233183073 60.7875270427 45.0947182326 # GFOc
463 1 1 0.4954 3.3826604138 60.5708385661 44.8406970017 # C
464 1 2 -0.1280 2.3433426400 60.0151420038 44.8673552072 # F
465 1 2 -0.1559 3.0821208663 59.6426390910 45.5349738404 # F
466 1 1 0.0465 3.1414027405 60.5341415234 43.9568330815 # C
467 1 2 -0.1122 4.1617128616 60.3826300914 44.1487078391 # F
468 1 1 0.5842 3.1104419601 60.3299139653 42.9475554255 # C
469 1 2 -0.1563 2.2969168282 61.0327389185 43.1282179662 # F
470 1 2 -0.1736 2.4896335742 59.6402442466 43.0594782869 # F
471 1 2 -0.1844 3.7210654426 60.7812920769 42.0277140818 # F
472 1 3 -0.2516 2.0885249104 60.5023872442 43.8081144510 # GFOc
473 1 1 0.4557 1.4338640510 61.3382071651 43.7994718083 # C
474 1 2 -0.1368 1.1182483171 60.2264979285 43.1511990784 # F
475 1 2 -0.1393 0.9774465563 62.0711783505 44.2118549600 # F
476 1 1 0.1062 1.7318820752 62.4103840533 43.1790229466 # C
477 1 2 -0.1457 1.2445488309 63.1048698679 43.8571760332 # F
478 1 2 -0.1482 3.0246102569 62.0423939938 42.9214514573 # F
479 1 4 1.1345 2.0957466593 63.5061060552 42.4502140949 # GGS
480 1 5 -0.6371 2.6397051611 64.1902086297 42.9550898994 # GOs
481 1 5 -0.6371 2.6784495128 63.9886050570 41.5749350687 # GOs
482 1 5 -0.6371 0.8740255317 63.6171538606 41.7072143237 # GOs