LAMMPS output created by EMC v9.4.4, build Aug  6 2019 08:14:42

        7994  atoms
6867 bonds
10430 angles
13377 dihedrals

           8  atom types
           7  bond types
          12  angle types
          14  dihedral types

             0    43.07791893  xlo xhi
             0    43.07791893  ylo yhi
             0    43.07791893  zlo zhi

Masses

       1   12.01115  # C
       2   18.99840  # F
       3   15.99940  # Oc
       4   32.06400  # S
       5   15.99940  # Os       
	   6    22.990 	 # Na
       7    1.00797  # H
       8    15.99940  # O

Atoms

1 1 1 0.3275 3.2051768456 6.7725039206 30.1354144640 # C
2 1 2 -0.1576 3.7700787136 6.3657762354 29.2170811826 # F
3 1 2 -0.1576 3.5121712746 7.6500193756 30.2360151725 # F
4 1 1 0.3275 3.2356503464 6.5712179988 31.1668850389 # C
5 1 2 -0.1576 3.3053875357 5.7049142963 30.8185524516 # F
6 1 2 -0.1576 3.9351394765 5.7277341875 31.7763646982 # F
7 1 1 0.3275 3.5006808130 7.3589026766 32.2260905599 # C
8 1 2 -0.1576 4.5315384141 7.1949299438 32.4903510463 # F
9 1 2 -0.1576 3.1299805883 8.4821768829 31.8527122339 # F
10 1 1 0.3275 2.9790049385 7.4027546893 32.9906800486 # C
11 1 2 -0.1576 1.6848600999 7.7539802331 32.6362246422 # F
12 1 2 -0.1576 2.8024618684 6.5127500031 33.6700392764 # F
13 1 1 0.3275 3.8495479720 8.1300448481 33.2658240843 # C
14 1 2 -0.1576 4.1483452370 7.4329099621 33.6918922786 # F
15 1 2 -0.1576 4.4794863711 9.0128295462 32.7957894188 # F
16 1 1 0.3275 3.9154790886 8.6387825311 33.9872910762 # C
17 1 2 -0.1576 4.5684255018 8.4846929123 34.9946166596 # F
18 1 2 -0.1576 2.8455762820 8.8155400523 33.7106431915 # F
19 1 1 0.3275 3.8833692995 9.5657921951 34.0187645899 # C
20 1 2 -0.1576 3.4494046081 9.5798889660 33.1124132306 # F
21 1 2 -0.1576 3.5988278022 9.7912617039 34.8390514493 # F
22 1 1 0.3275 4.8130593204 10.1697733242 34.1807537273 # C
23 1 2 -0.1576 4.1266906361 10.9099131368 35.2138582751 # F
24 1 2 -0.1576 4.9259920486 10.8173238835 33.5270041502 # F
25 1 1 0.3275 5.7840846489 9.4745123846 34.2682414695 # C
26 1 2 -0.1576 5.8424074251 8.7636086616 33.2649333800 # F
27 1 2 -0.1576 4.9233978096 9.5143607821 34.8277217477 # F
28 1 1 0.3275 6.4430183474 9.8180938376 34.8951597259 # C
29 1 2 -0.1576 6.8246077874 8.8456838430 34.8553768060 # F
30 1 2 -0.1576 6.1683776140 9.8805292006 35.7203634220 # F
31 1 1 0.3275 6.4035462482 11.1373981380 34.7013821535 # C
32 1 2 -0.1576 6.0234697593 11.9760632683 34.2413883927 # F
33 1 2 -0.1576 5.4370813228 11.7869812843 35.1753502358 # F
34 1 1 0.3275 7.2519751224 11.3685510708 34.9683373649 # C
35 1 2 -0.1576 7.4337265021 11.1438219533 34.1928533729 # F
36 1 2 -0.1576 7.4343811384 11.1262952602 35.9116970346 # F
37 1 1 0.3275 7.3102568954 12.3125886101 34.7939128372 # C
38 1 2 -0.1576 6.4049363805 12.8097739038 34.1766780005 # F
39 1 2 -0.1576 8.2391313013 12.7812400185 34.6206923868 # F
40 1 1 0.3275 6.1135075924 13.0019302453 35.9256909602 # C
41 1 2 -0.1576 5.3214970629 13.6494508268 35.3575506921 # F
42 1 2 -0.1576 6.7308121427 12.6535511716 36.6680472950 # F
43 1 1 0.2465 5.0131423451 13.3847914094 35.8617474273 # C
44 1 2 -0.1336 4.3178259787 13.7916607446 34.4609292264 # F
45 1 2 -0.1336 5.0794126708 14.5441865419 36.4824011979 # F
46 1 1 0.1317 3.7712900178 12.6872950788 35.7097894722 # C
47 1 2 -0.1193 4.2483391202 11.7806914420 36.2454870475 # F
48 1 3 -0.3109 2.8777442140 12.6895641372 35.2548083786 # Oc
49 1 1 0.4954 2.3047195489 13.6099736583 34.4981316051 # C
50 1 2 -0.1280 2.8843475200 14.1169686640 34.5710129686 # F
51 1 2 -0.1559 1.3187134162 13.2151810180 34.9397419217 # F
52 1 1 0.0465 2.0281578943 14.3668971078 33.6320041258 # C
53 1 2 -0.1122 2.6949417503 14.5848380893 33.9521685429 # F
54 1 1 0.5842 1.1456697380 14.3098214704 33.7360636400 # C
55 1 2 -0.1563 0.6798530649 13.8311709641 34.7729003132 # F
56 1 2 -0.1736 0.7822696044 14.8631776470 32.8853429522 # F
57 1 2 -0.1844 0.7903695617 13.5985969649 33.1518242963 # F
58 1 3 -0.2516 2.5358491675 14.6381304187 33.0371548381 # Oc
59 1 1 0.4557 2.9160733567 14.3633842770 32.0139001922 # C
60 1 2 -0.1368 2.9230896322 15.2156515179 31.4926372269 # F
61 1 2 -0.1393 3.8675807327 14.1573403445 32.5428030681 # F
62 1 1 0.1062 2.1694825544 13.5103831090 31.7374061333 # C
63 1 2 -0.1457 1.5795707657 13.8480766271 31.2166792374 # F
64 1 2 -0.1482 1.6235473501 13.9077718316 32.4637753956 # F
65 1 4 1.1345 2.3952128264 12.2633588683 31.6593574888 # S
66 1 5 -0.6371 2.3534353667 11.9365200816 32.6464699979 # Os
67 1 5 -0.6371 3.2884855720 12.0890886314 30.9907245301 # Os
68 1 5 -0.6371 1.7683014829 11.6783751191 30.9326214216 # Os
69 1 6 1.0000 0.9963340989 11.6127855533 30.8699556327 # Na
70 1 1 0.3275 3.8365419857 12.6796214256 34.6348465228 # C
71 1 2 -0.1576 2.7953693572 13.6190004476 33.8814268426 # F
72 1 2 -0.1576 3.3613068776 11.6859461741 34.5965550517 # F
73 1 1 0.3275 2.6978064727 12.3453983080 33.6568352256 # C
74 1 2 -0.1576 2.3296862971 12.9618286517 33.2836459127 # F
75 1 2 -0.1576 1.7217003080 11.9016909807 34.1555015978 # F
76 1 1 0.3275 3.5974341902 12.3237464088 32.9081701246 # C
77 1 2 -0.1576 4.3914158521 12.2720512924 33.6017803389 # F
78 1 2 -0.1576 3.1237870934 13.3143533796 32.5362081736 # F
79 1 1 0.3275 3.7383011533 12.1255093054 31.8660548715 # C
80 1 2 -0.1576 4.6137414606 11.8860828553 32.3230465975 # F
81 1 2 -0.1576 3.2669586859 11.6802466585 31.4503256239 # F
82 1 1 0.3275 4.4983102691 12.9939261407 31.8093320766 # C
83 1 2 -0.1576 4.3563882575 13.7997591539 31.1430500848 # F
84 1 2 -0.1576 4.0621652504 13.2404164950 32.7489091981 # F
85 1 1 0.3275 5.6620152597 12.6309339721 32.3278389246 # C
86 1 2 -0.1576 6.1435118889 11.9571459281 32.9714774253 # F
87 1 2 -0.1576 5.3961452703 12.7467878840 33.5269504194 # F
88 1 1 0.3275 5.9403315480 12.4056915913 31.1827784559 # C
89 1 2 -0.1576 5.3302704445 12.6409520920 30.0512610395 # F
90 1 2 -0.1576 6.4326696836 11.6756681551 31.4877200624 # F
91 1 1 0.3275 5.5988308299 11.4251502037 30.9142871887 # C
92 1 2 -0.1576 4.6176066531 11.4747217609 30.7276795228 # F
93 1 2 -0.1576 5.9319771496 9.9470849548 30.9672529945 # F
94 1 1 0.3275 6.8181013511 10.5756466244 30.8626745865 # C
95 1 2 -0.1576 6.6355188684 10.6834569617 29.9884418712 # F
96 1 2 -0.1576 6.6330846963 10.3053761867 32.0621368736 # F
97 1 1 0.3275 8.1333062895 10.0185130438 31.2978361077 # C
98 1 2 -0.1576 8.7275160044 10.6744754954 31.2916412497 # F
99 1 2 -0.1576 8.7651929190 10.0673641531 32.4130962286 # F
100 1 1 0.3275 7.9322123816 9.0250023319 31.3329145453 # C
101 1 2 -0.1576 7.4831531286 8.7455293837 32.0654482333 # F
102 1 2 -0.1576 8.7381996968 8.4936932213 31.7046549074 # F
103 1 1 0.3275 7.6099681432 8.9390238252 30.5203301545 # C
104 1 2 -0.1576 8.0760844696 9.6402370214 30.4786268393 # F
105 1 2 -0.1576 7.5061960712 9.8516673851 29.8100451247 # F
106 1 1 0.3275 6.8632265342 8.3147212061 30.0393134842 # C
107 1 2 -0.1576 6.7047663532 7.2300195195 30.2914168307 # F
108 1 2 -0.1576 6.7954802261 8.3740377223 28.8802373530 # F
109 1 1 0.3275 5.9053177964 8.5316627985 30.7476285908 # C
110 1 2 -0.1576 4.7952880228 8.3240370080 30.5420376209 # F
111 1 2 -0.1576 6.2777977952 9.3725818125 31.5909521118 # F
112 1 1 0.2465 5.8753943083 7.5003375440 31.4848160284 # C
113 1 2 -0.1336 7.0637859837 6.9847885651 30.9733149719 # F
114 1 2 -0.1336 5.7096946421 6.3030431903 31.8535291252 # F
115 1 1 0.1317 5.6862674912 8.1070475986 32.6031580370 # C
116 1 2 -0.1193 5.3724383285 7.3973041472 33.3102777550 # F
117 1 3 -0.3109 5.0450235941 8.4973397700 32.1950230731 # Oc
118 1 1 0.4954 4.2568382784 9.1021708444 31.3193047801 # C
119 1 2 -0.1280 4.3526184283 9.2102193186 30.2152897331 # F
120 1 2 -0.1559 3.5570932320 8.1158148779 31.1339808143 # F
121 1 1 0.0465 4.1521353581 9.8405031615 31.3285125823 # C
122 1 2 -0.1122 3.1563821315 9.3358166528 31.3011689564 # F
123 1 1 0.5842 4.5205425010 10.2202838600 32.5657501514 # C
124 1 2 -0.1563 4.3744036302 11.2060529513 33.0933609181 # F
125 1 2 -0.1736 5.7284960352 10.3506816269 32.4335411681 # F
126 1 2 -0.1844 4.8090768266 9.6869215242 33.2972144221 # F
127 1 3 -0.2516 3.9885694299 10.4633812967 30.5366149788 # Oc
128 1 1 0.4557 4.8670567108 10.4014605760 29.6456838656 # C
129 1 2 -0.1368 6.0659613232 10.1152688237 29.3663496800 # F
130 1 2 -0.1393 5.4051037385 11.6903822342 30.2018861152 # F
131 1 1 0.1062 4.1079134252 9.7300361435 28.8327855627 # C
132 1 2 -0.1457 4.5199502136 8.8560286596 28.4016270662 # F
133 1 2 -0.1482 3.4092893311 8.8925985256 28.8623952285 # F
134 1 4 1.1345 3.9622286480 10.4394274283 28.1210370657 # S
135 1 5 -0.6371 3.4422285338 9.6388242613 27.7935968061 # Os
136 1 5 -0.6371 4.7654937591 10.8641244444 27.6485890536 # Os
137 1 5 -0.6371 3.4606345460 10.9908410928 27.7875295088 # Os
138 1 6 1.0000 2.9026252579 11.5695886334 28.4083195262 # Na
139 1 1 0.3275 6.8524772936 8.1121136567 32.9889648864 # C
140 1 2 -0.1576 7.3876433441 7.2345224589 33.2615195566 # F
141 1 2 -0.1576 6.6758553145 6.9485142122 32.6872566388 # F
142 1 1 0.3275 6.7401152520 8.9050001277 33.6661024710 # C
143 1 2 -0.1576 5.9643431569 9.8290674869 33.1975547003 # F
144 1 2 -0.1576 6.3836818895 8.2804121531 34.5763245711 # F
145 1 1 0.3275 7.3678489547 9.2051944387 33.8603581259 # C
146 1 2 -0.1576 7.7415969064 9.9962693388 33.4499689813 # F
147 1 2 -0.1576 7.0086116219 9.2506662200 34.9819872956 # F
148 1 1 0.3275 8.2222173464 8.2248007745 34.0168409916 # C
149 1 2 -0.1576 7.5338026796 7.4072478464 34.5658429956 # F
150 1 2 -0.1576 8.2752314119 8.6677082862 33.2437722622 # F
151 1 1 0.3275 9.5384323478 8.0074548631 34.1141538052 # C
152 1 2 -0.1576 9.9527209102 8.1508339111 32.6299123348 # F
153 1 2 -0.1576 10.1404558465 6.7300067976 34.5510797853 # F
154 1 1 0.3275 10.2355731806 8.5057006932 34.8890901746 # C
155 1 2 -0.1576 10.3635229941 7.9294900073 35.6335983277 # F
156 1 2 -0.1576 9.4690956595 7.8397019281 34.8110251140 # F
157 1 1 0.3275 10.9383759295 9.1308085326 35.1899660990 # C
158 1 2 -0.1576 11.3966111801 8.4981836676 33.9881610108 # F
159 1 2 -0.1576 12.0440408422 8.7912332366 35.8070171128 # F
160 1 1 0.3275 10.5260070245 10.0962689174 35.7353020992 # C
161 1 2 -0.1576 11.1536978418 11.2436303063 35.3776124618 # F
162 1 2 -0.1576 9.7289711970 10.0589902339 35.8135369387 # F
163 1 1 0.3275 9.8961532262 10.2306999421 36.6644145946 # C
164 1 2 -0.1576 10.5825118361 10.6945235047 37.5346782005 # F
165 1 2 -0.1576 9.2813465461 10.7188491212 36.7299649431 # F
166 1 1 0.3275 9.1535057891 9.3951557023 36.3599905443 # C
167 1 2 -0.1576 8.5403587076 9.7804450991 35.9759441653 # F
168 1 2 -0.1576 9.5493106062 8.5969801556 35.6449225249 # F
169 1 1 0.3275 9.1334929460 8.2733720201 36.4826102284 # C
170 1 2 -0.1576 8.7146179233 7.6846460482 35.2386021122 # F
171 1 2 -0.1576 9.7471760589 7.7092583505 36.3959795440 # F
172 1 1 0.3275 9.1457756294 7.8734002281 37.3683928624 # C
173 1 2 -0.1576 9.5348663738 7.1894802116 37.9548694612 # F
174 1 2 -0.1576 8.3114705951 6.9847984791 37.3576058864 # F
175 1 1 0.3275 8.8047312024 8.4661530229 37.6540073625 # C
176 1 2 -0.1576 7.8868272086 7.9964613774 37.5043771499 # F
177 1 2 -0.1576 9.8785795993 8.1787125607 38.2636384579 # F
178 1 1 0.3275 8.8306810970 9.4787554438 37.5476317178 # C
179 1 2 -0.1576 8.8196894434 9.7981805360 38.4412148556 # F
180 1 2 -0.1576 9.4545826838 9.0451647750 37.0966901330 # F
181 1 1 0.2465 8.4916701450 10.7066550775 37.4437402067 # C
182 1 2 -0.1336 9.7598820165 11.1048871679 37.1896872853 # F
183 1 2 -0.1336 7.6629936221 10.6731929871 36.8771111500 # F
184 1 1 0.1317 8.1276375495 10.8917729239 38.3531484441 # C
185 1 2 -0.1193 7.8297751561 10.4656114184 39.5324042783 # F
186 1 3 -0.3109 8.5395738087 11.8761258102 38.2558807560 # Oc
187 1 1 0.4954 8.2498714254 13.0697549342 38.7578795867 # C
188 1 2 -0.1280 7.1534715417 13.1691192366 38.9615943135 # F
189 1 2 -0.1559 8.6307196870 13.4385715469 39.5631753446 # F
190 1 1 0.0465 9.3428307533 14.0017408594 38.0007010731 # C
191 1 2 -0.1122 8.9003791945 15.0879269976 38.2948940510 # F
192 1 1 0.5842 9.8703700284 14.7364951984 38.3657569257 # C
193 1 2 -0.1563 10.7987134730 14.4847671487 38.4708637467 # F
194 1 2 -0.1736 10.1892780576 13.8606764404 39.2220768400 # F
195 1 2 -0.1844 9.3334515740 15.3651872572 38.3410718724 # F
196 1 3 -0.2516 10.2806716008 13.3389251739 37.3364844605 # Oc
197 1 1 0.4557 10.7518297952 12.8889220341 37.0532398222 # C
198 1 2 -0.1368 9.8060843240 11.8169574865 36.7929812678 # F
199 1 2 -0.1393 10.8692823778 13.1222924762 36.2120020573 # F
200 1 1 0.1062 11.9713361963 13.0628183556 37.1763910327 # C
201 1 2 -0.1457 12.3804129996 12.1397273489 37.5186423809 # F
202 1 2 -0.1482 11.6231285116 14.1463505821 37.9927833246 # F
203 1 4 1.1345 12.4906650775 13.4128133998 36.2653060457 # S
204 1 5 -0.6371 12.4113325376 13.1000156693 35.6294960735 # Os
205 1 5 -0.6371 11.7824533420 13.9792196485 35.8825406556 # Os
206 1 5 -0.6371 13.2394626595 13.6043209066 36.9900809011 # Os
207 1 6 1.0000 13.5451636906 14.4328173342 37.8637964161 # Na
208 1 1 0.3275 6.7324016219 10.7699012059 38.6805728432 # C
209 1 2 -0.1576 6.1944361501 9.7044010454 38.3437950181 # F
210 1 2 -0.1576 6.4024411476 11.2629331034 37.4387040363 # F
211 1 1 0.3275 6.3809853601 10.7106128350 39.8121969006 # C
212 1 2 -0.1576 5.8369891190 9.5907542421 40.7176134810 # F
213 1 2 -0.1576 7.2606510879 11.0936003342 39.9485366615 # F
214 1 1 0.3275 5.1655074033 10.9167642371 39.0460457967 # C
215 1 2 -0.1576 4.9464346005 12.0087657659 38.9823647123 # F
216 1 2 -0.1576 5.3945674994 10.6749790494 38.2252101426 # F
217 1 1 0.3275 4.1919830443 10.4720080010 39.4805417911 # C
218 1 2 -0.1576 3.7925260387 10.8619081330 39.8143831316 # F
219 1 2 -0.1576 3.4115581676 10.2489301867 38.4368688092 # F
220 1 1 0.3275 4.5378843801 9.8609677026 40.5603708693 # C
221 1 2 -0.1576 5.2137033339 10.7746684858 41.2574181322 # F
222 1 2 -0.1576 4.9615533918 8.9125214648 40.7786120018 # F
223 1 1 0.3275 4.2182258506 9.4684651565 41.6771204250 # C
224 1 2 -0.1576 4.1100289881 8.5711346993 41.8498958873 # F
225 1 2 -0.1576 3.5742549225 10.0107462465 41.5610692071 # F
226 1 1 0.3275 4.8071920192 10.1668762677 42.8251259193 # C
227 1 2 -0.1576 5.5503224700 9.7428624454 42.4239390290 # F
228 1 2 -0.1576 5.3439165591 11.0400007922 0.0637356603 # F
229 1 1 0.3275 4.3918202744 10.9481606002 0.5240926061 # C
230 1 2 -0.1576 4.1767591570 10.0973398062 1.3184103651 # F
231 1 2 -0.1576 3.6480281670 11.1304951792 0.3373533516 # F
232 1 1 0.3275 4.2926023089 12.0584916831 1.0551063417 # C
233 1 2 -0.1576 3.4532550746 11.0866218340 1.0111340410 # F
234 1 2 -0.1576 5.2768101197 11.6643671572 1.5682754235 # F
235 1 1 0.3275 4.4222419012 12.8729956054 0.1159858378 # C
236 1 2 -0.1576 4.3102439429 12.5359183011 42.0421177540 # F
237 1 2 -0.1576 5.1444400046 13.1974748086 0.8393777500 # F
238 1 1 0.3275 3.6440660383 13.8910099544 43.0404453967 # C
239 1 2 -0.1576 2.4584064003 13.6722562205 42.9669484094 # F
240 1 2 -0.1576 3.5207749369 13.6722277412 0.7259692095 # F
241 1 1 0.3275 3.9949578566 15.2388863939 0.1087007054 # C
242 1 2 -0.1576 4.3531262029 15.0106349930 0.9358238911 # F
243 1 2 -0.1576 3.1709453921 16.0008232328 0.3023671514 # F
244 1 1 0.3275 4.7470791745 15.0603515300 42.3802767631 # C
245 1 2 -0.1576 5.0264565795 15.7825401212 41.8994374314 # F
246 1 2 -0.1576 4.4815850106 14.5138502105 42.0299011496 # F
247 1 1 0.3275 5.5632560101 15.0009631743 42.5634661939 # C
248 1 2 -0.1576 6.3455779340 15.5687118371 0.5840795544 # F
249 1 2 -0.1576 5.9845437134 15.3276668318 41.4599292063 # F
250 1 1 0.2465 5.8586850818 14.2918767020 42.5528142748 # C
251 1 2 -0.1336 4.6316153727 13.6944405856 42.7000890307 # F
252 1 2 -0.1336 6.5389840476 14.2314470688 0.4524238661 # F
253 1 1 0.1317 6.3063297237 14.0301014966 41.7746170663 # C
254 1 2 -0.1193 6.8682191072 14.6037155338 41.1231876371 # F
255 1 3 -0.3109 6.0270657089 13.4433612739 41.2411361068 # Oc
256 1 1 0.4954 5.1682156403 13.1302182391 40.1874630271 # C
257 1 2 -0.1280 4.1790646042 12.9254857522 39.8731154799 # F
258 1 2 -0.1559 5.9493046961 12.5056267283 40.4523255124 # F
259 1 1 0.0465 5.6555004402 13.0940828812 38.7449968226 # C
260 1 2 -0.1122 5.5379007258 14.1681018341 38.6536078523 # F
261 1 1 0.5842 5.2145828502 12.4854193046 38.1405972252 # C
262 1 2 -0.1563 5.2372548503 13.1324992844 37.5597059139 # F
263 1 2 -0.1736 4.1811909799 11.8929726875 38.3554799825 # F
264 1 2 -0.1844 5.5747105824 11.5027250321 38.7270729356 # F
265 1 3 -0.2516 6.2705905664 12.5170307764 38.5306464909 # Oc
266 1 1 0.4557 7.2741157309 11.9363749654 37.5082175754 # C
267 1 2 -0.1368 7.3833901026 11.1627620180 37.7001571376 # F
268 1 2 -0.1393 8.1649842817 12.7785100049 37.8756456623 # F
269 1 1 0.1062 7.5396876498 11.7896278726 36.6183406137 # C
270 1 2 -0.1457 6.9030019689 11.0426066224 35.9411413286 # F
271 1 2 -0.1482 8.4278076150 11.7804466680 36.4451200835 # F
272 1 4 1.1345 7.8066921530 12.8385740118 36.4798681915 # S
273 1 5 -0.6371 8.3980885687 12.3703943979 37.2582318039 # Os
274 1 5 -0.6371 8.8856763620 13.1831005957 36.3092137583 # Os
275 1 5 -0.6371 7.3255276059 13.5568495355 35.6559116395 # Os
276 1 6 1.0000 6.7827898686 12.8249239139 34.9635865826 # Na
277 1 1 0.3275 7.0995218657 13.5907225357 41.9674683817 # C
278 1 2 -0.1576 6.9157549910 13.8163381679 42.9069787190 # F
279 1 2 -0.1576 8.1008732746 13.7729063212 41.2766321766 # F
280 1 1 0.3275 7.3249670231 12.2913009976 42.7213633022 # C
281 1 2 -0.1576 7.1809258518 11.4669394838 41.9867711866 # F
282 1 2 -0.1576 8.3213852831 12.5922770633 42.5670136470 # F
283 1 1 0.3275 7.2630253862 11.5703782173 0.7121080863 # C
284 1 2 -0.1576 7.6941382026 10.6633298851 1.2971004270 # F
285 1 2 -0.1576 7.1995860960 12.3271179983 1.4324416779 # F
286 1 1 0.3275 6.2525814925 11.6382649402 0.4665487992 # C
287 1 2 -0.1576 6.0074306324 11.8309876641 1.5144984226 # F
288 1 2 -0.1576 6.3958772677 10.2843287926 1.0595176631 # F
289 1 1 0.3275 5.9111646794 12.4553723248 42.7220466467 # C
290 1 2 -0.1576 6.3191847630 13.0554352798 0.2038078205 # F
291 1 2 -0.1576 5.2767242651 13.0797514457 42.2156385410 # F
292 1 1 0.3275 6.4501517391 12.7059088697 41.8364617972 # C
293 1 2 -0.1576 7.5423707034 11.5959580502 41.1358001750 # F
294 1 2 -0.1576 6.8862940381 13.4561787912 40.9040282684 # F
295 1 1 0.3275 5.4272818458 12.8975063392 41.8957446091 # C
296 1 2 -0.1576 5.1201825628 11.6842388824 41.5464050922 # F
297 1 2 -0.1576 5.3023122992 13.4656755888 42.8208025376 # F
298 1 1 0.3275 4.5837985375 13.2121288482 41.2591860544 # C
299 1 2 -0.1576 5.3017422944 13.6447506037 40.8593634346 # F
300 1 2 -0.1576 3.8049903481 14.3864740081 41.2363531883 # F
301 1 1 0.3275 4.1960562542 12.4146001720 40.6207401709 # C
302 1 2 -0.1576 4.6143705071 12.0521136754 39.6417380205 # F
303 1 2 -0.1576 3.1794515113 12.4713421003 40.2738059305 # F
304 1 1 0.3275 4.3450662677 11.4273777665 41.3193348173 # C
305 1 2 -0.1576 4.2508845182 10.8372504541 41.6466084451 # F
306 1 2 -0.1576 4.8525327172 11.5214154905 42.3383821715 # F
307 1 1 0.3275 4.6323414127 11.2101129622 40.3071887987 # C
308 1 2 -0.1576 5.7281025952 12.1404576110 39.9443298864 # F
309 1 2 -0.1576 5.4725746587 10.0871300225 39.7232782490 # F
310 1 1 0.3275 3.6118798025 11.6257126532 39.6189188585 # C
311 1 2 -0.1576 2.4378682359 11.6496389946 39.0997253564 # F
312 1 2 -0.1576 3.6014453287 11.3368303402 40.4883256854 # F
313 1 1 0.3275 3.3899110730 12.7850722712 38.8276907931 # C
314 1 2 -0.1576 2.7379015210 13.6902920572 38.2842131796 # F
315 1 2 -0.1576 3.0915575018 13.5981701553 39.2396411367 # F
316 1 1 0.3275 2.7298788039 12.1891077266 38.1568266704 # C
317 1 2 -0.1576 2.7658036913 12.0825471029 37.4587267673 # F
318 1 2 -0.1576 2.1876900729 12.7770252620 37.9696199449 # F
319 1 1 0.2465 1.6595318529 12.2319123019 39.0254682493 # C
320 1 2 -0.1336 0.7962220430 11.3450836338 38.5730648779 # F
321 1 2 -0.1336 0.4700611948 12.6288294676 38.9008605908 # F
322 1 1 0.1317 2.1444155818 12.9676996522 40.1367050483 # C
323 1 2 -0.1193 2.9115717116 13.7690409622 40.5574683401 # F
324 1 3 -0.3109 2.9221750569 12.3030407034 41.0932274940 # Oc
325 1 1 0.4954 2.7949297118 11.2586511240 41.5717992884 # C
326 1 2 -0.1280 3.4088782946 10.8614553502 42.5278893537 # F
327 1 2 -0.1559 1.8196694304 10.7776718073 41.2936488201 # F
328 1 1 0.0465 2.6913701250 10.5378539590 40.9161526216 # C
329 1 2 -0.1122 2.2842309441 9.8044167768 41.0467317952 # F
330 1 1 0.5842 2.0574003352 11.4326939476 40.6067229608 # C
331 1 2 -0.1563 1.4092823297 11.8132278648 41.7298224272 # F
332 1 2 -0.1736 1.6733093149 12.5611713938 40.9926364519 # F
333 1 2 -0.1844 1.6307933405 11.5696314383 39.7496860648 # F
334 1 3 -0.2516 3.2961632242 10.5033250000 39.5696539250 # Oc
335 1 1 0.4557 3.0051873797 9.4162209107 38.9474706664 # C
336 1 2 -0.1368 3.5106845657 8.7537217550 39.4204167674 # F
337 1 2 -0.1393 3.8977695800 9.1415003774 38.3255579064 # F
338 1 1 0.1062 2.2619820003 9.7565995178 37.7391171331 # C
339 1 2 -0.1457 0.9085206435 10.3797939943 38.1623182521 # F
340 1 2 -0.1482 2.4407046530 10.5151894062 37.2553693279 # F
341 1 4 1.1345 1.7640456682 9.1506302769 36.8726652395 # S
342 1 5 -0.6371 2.8055833417 9.2776012621 36.2822540574 # Os
343 1 5 -0.6371 0.9590341791 9.6227950969 36.4353694028 # Os
344 1 5 -0.6371 1.6445706543 7.9206592197 37.1921413992 # Os
345 1 6 1.0000 2.0886251390 6.8145938786 37.0349399972 # Na
346 1 1 0.3275 1.8919104272 14.2347208695 39.9210005053 # C
347 1 2 -0.1576 1.2114108130 14.6840363967 39.1830541587 # F
348 1 2 -0.1576 2.4143734023 14.4478480577 39.4039408424 # F
349 1 1 0.3275 1.2506632671 14.6123402681 40.5718187923 # C
350 1 2 -0.1576 43.0206314505 13.7624098350 40.9086132531 # F
351 1 2 -0.1576 1.7920272880 15.4585371331 40.9726529548 # F
352 1 1 0.3275 1.6667621618 15.1820946616 41.4006995719 # C
353 1 2 -0.1576 1.8075355640 14.1364017333 42.4029852133 # F
354 1 2 -0.1576 0.9563180197 15.9941977940 41.5994809294 # F
355 1 1 0.3275 3.0077302669 14.9779905696 40.8071639969 # C
356 1 2 -0.1576 3.6497423705 13.9496536375 40.1430450126 # F
357 1 2 -0.1576 2.8835727393 15.6421765028 40.0985243018 # F
358 1 1 0.3275 3.0619912233 15.7344637090 41.2685522062 # C
359 1 2 -0.1576 3.2230876403 17.0817994802 41.2955584601 # F
360 1 2 -0.1576 3.7710536359 15.6249160005 41.6838536808 # F
361 1 1 0.3275 2.3504679318 16.1267596605 41.4651580856 # C
362 1 2 -0.1576 2.2728499241 17.0340901961 40.8429530145 # F
363 1 2 -0.1576 2.0678980062 15.2043255028 42.2763331248 # F
364 1 1 0.3275 1.3076961817 16.7215899305 40.9633036359 # C
365 1 2 -0.1576 0.5595715171 16.1676936770 40.3006902576 # F
366 1 2 -0.1576 1.2125002555 17.6945846217 40.3815606067 # F
367 1 1 0.3275 1.3272573482 16.5492033481 42.2904988029 # C
368 1 2 -0.1576 1.2835867132 17.8434132688 42.8179421981 # F
369 1 2 -0.1576 2.0311388290 16.3374673310 42.5437124018 # F
370 1 1 0.3275 0.3802872454 15.7651054223 42.4927192063 # C
371 1 2 -0.1576 42.5612053432 16.3679088655 42.6598348159 # F
372 1 2 -0.1576 42.8112601370 15.5112653675 41.5690780069 # F
373 1 1 0.3275 0.9426491363 14.8622906418 43.0587168962 # C
374 1 2 -0.1576 0.9523429923 14.5517201729 41.8132545329 # F
375 1 2 -0.1576 2.1053034796 15.4955501548 0.0389119664 # F
376 1 1 0.3275 1.3531395207 15.0539997519 1.0163356153 # C
377 1 2 -0.1576 2.3338383006 14.6531215526 1.1398440437 # F
378 1 2 -0.1576 0.9453571195 14.8730375112 1.9563037874 # F
379 1 1 0.3275 1.2149269462 16.3376041084 0.7055174985 # C
380 1 2 -0.1576 2.3694033494 16.8289606217 1.5142883352 # F
381 1 2 -0.1576 0.4367101165 17.1999016980 0.8125670443 # F
382 1 1 0.3275 1.5507306231 16.7551684294 42.9933044462 # C
383 1 2 -0.1576 1.3413935506 15.6665835140 0.2986050409 # F
384 1 2 -0.1576 2.0910180515 17.0502492830 42.1500838563 # F
385 1 1 0.3275 2.9081531801 17.3465080806 43.0683610618 # C
386 1 2 -0.1576 2.2001540181 18.2089853065 0.6075090961 # F
387 1 2 -0.1576 3.2509262397 17.6449785846 42.0888218513 # F
388 1 1 0.2465 3.6876977314 16.9844747668 42.9313225355 # C
389 1 2 -0.1336 3.9896417161 16.0982192529 42.0722541450 # F
390 1 2 -0.1336 4.3978506386 17.6215076647 42.4857972747 # F
391 1 1 0.1317 3.4360856276 16.6309438568 1.0894171204 # C
392 1 2 -0.1193 2.7844375086 17.6093874582 1.5894745376 # F
393 1 3 -0.3109 3.7352942651 15.2927008831 1.5396492990 # Oc
394 1 1 0.4954 3.4208327828 14.6553896534 2.2915728512 # C
395 1 2 -0.1280 2.2901366550 14.4197072046 2.6152673802 # F
396 1 2 -0.1559 3.5029611910 13.9803645711 3.2392889028 # F
397 1 1 0.0465 4.2820100963 14.0022968804 2.1929748054 # C
398 1 2 -0.1122 4.4016096414 13.7248202250 1.0797148176 # F
399 1 1 0.5842 4.9784704771 13.2065570552 2.8097710554 # C
400 1 2 -0.1563 5.9455896962 13.0534665817 2.6001980539 # F
401 1 2 -0.1736 4.4674188090 14.2804756265 3.2628445396 # F
402 1 2 -0.1844 5.1418650476 12.3174615028 3.5310558286 # F
403 1 3 -0.2516 5.2089082764 14.0387634393 2.7019573896 # Oc
404 1 1 0.4557 5.8276840696 14.7015059057 3.4518152179 # C
405 1 2 -0.1368 6.2878444609 15.3655349903 3.0922368250 # F
406 1 2 -0.1393 6.5872488490 13.7932796293 3.4317025903 # F
407 1 1 0.1062 5.2844365159 14.5423397845 4.5438149510 # C
408 1 2 -0.1457 5.7609351697 15.0256580364 5.4902309506 # F
409 1 2 -0.1482 4.6440653205 15.2211021675 4.1751628792 # F
410 1 4 1.1345 4.9706442459 13.8084545706 4.9206916966 # S
411 1 5 -0.6371 3.9529084681 13.6181675398 4.9886903849 # Os
412 1 5 -0.6371 5.0518022841 14.4596986378 5.6755086150 # Os
413 1 5 -0.6371 5.5434773640 12.8308058409 5.3522472708 # Os
414 1 6 1.0000 6.3616495234 13.5804546072 5.6778779000 # Na
415 1 1 0.3275 3.9506087242 16.7917280983 2.0386421140 # C
416 1 2 -0.1576 3.4905806700 16.6386876458 3.0030468932 # F
417 1 2 -0.1576 3.7454735020 17.9804547520 1.9874380697 # F
418 1 1 0.3275 5.2283243015 16.2279977741 1.9354764196 # C
419 1 2 -0.1576 5.6966982105 16.4258366717 1.0905310557 # F
420 1 2 -0.1576 5.4023493616 16.2799159213 2.8795792444 # F
421 1 1 0.3275 5.0222332628 15.4728501485 1.6173812388 # C
422 1 2 -0.1576 4.4231442547 15.0963944056 2.0925682803 # F
423 1 2 -0.1576 6.0032917182 15.3575094351 2.3105301011 # F
424 1 1 0.3275 5.7968991888 14.7582204678 1.1177727557 # C
425 1 2 -0.1576 5.8630626731 15.3417855344 0.1192500430 # F
426 1 2 -0.1576 5.6648883600 13.3524192553 1.5360374217 # F
427 1 1 0.3275 6.9306287211 14.6317204141 1.3593670444 # C
428 1 2 -0.1576 7.0244204816 13.5089563598 1.0595172243 # F
429 1 2 -0.1576 7.1711363001 14.6929558877 2.5146812359 # F
430 1 1 0.3275 7.8259345439 15.0800248186 0.5972012696 # C
431 1 2 -0.1576 7.7470252481 15.7855933690 1.6827223285 # F
432 1 2 -0.1576 7.7883101699 15.2369712510 42.4507504815 # F
433 1 1 0.3275 8.8784215175 14.3855489642 0.9267457800 # C
434 1 2 -0.1576 8.9922559418 14.0026398880 2.2228254519 # F
435 1 2 -0.1576 9.3224881341 15.0175055772 1.9208683213 # F
436 1 1 0.3275 9.1177801994 13.5965351959 0.3550170274 # C
437 1 2 -0.1576 10.0319865520 13.2619459215 0.0201811514 # F
438 1 2 -0.1576 8.5374310416 13.0949035897 0.1385223099 # F
439 1 1 0.3275 8.9559494220 13.8416652159 42.4042380609 # C
440 1 2 -0.1576 9.8392680892 13.4469747022 41.8181839901 # F
441 1 2 -0.1576 9.1458756191 14.7234202071 42.3046508113 # F
442 1 1 0.3275 7.7476908303 13.9773176166 42.3957481700 # C
443 1 2 -0.1576 8.1621599333 14.4996414763 41.6340639861 # F
444 1 2 -0.1576 7.3653290263 13.4201597560 41.9068485699 # F
445 1 1 0.3275 7.5466360064 14.1546215063 0.3993774771 # C
446 1 2 -0.1576 7.2779775844 13.1295482039 0.2833857723 # F
447 1 2 -0.1576 8.4447295276 13.5184381548 1.1351078162 # F
448 1 1 0.3275 7.0404212030 15.5242253694 1.3246637165 # C
449 1 2 -0.1576 7.0175911399 15.6757369634 2.6741074585 # F
450 1 2 -0.1576 6.7626372328 16.4982775941 1.3982329359 # F
451 1 1 0.3275 6.5869379659 16.3376593485 0.2490179652 # C
452 1 2 -0.1576 5.7959048978 16.4633119709 0.2627518952 # F
453 1 2 -0.1576 6.9725205124 16.7168016994 42.3182650784 # F
454 1 1 0.3275 6.3856246623 17.1733605868 0.8021697094 # C
455 1 2 -0.1576 6.3072164865 17.5619760619 1.9378461412 # F
456 1 2 -0.1576 7.1760954122 17.1547230704 0.4450410259 # F
457 1 1 0.2465 5.1187345607 17.5686201576 1.0797616498 # C
458 1 2 -0.1336 5.1687296037 18.3381566054 1.4230223852 # F
459 1 2 -0.1336 4.8547500671 16.7345790770 0.8181078777 # F
460 1 1 0.1317 4.6663202316 17.9724395058 0.4166472675 # C
461 1 2 -0.1193 3.5623271220 18.2887779791 1.0226431753 # F
462 1 3 -0.3109 4.7351056662 19.2464150635 43.0535956341 # Oc
463 1 1 0.4954 5.2876511866 20.0675776045 42.7620199317 # C
464 1 2 -0.1280 6.2150195491 19.9183050025 42.3406646177 # F
465 1 2 -0.1559 5.6050617172 20.5223586274 41.5910531003 # F
466 1 1 0.0465 4.4671650799 20.4425390361 0.5821388347 # C
467 1 2 -0.1122 3.6436575078 19.1939378539 0.8018518457 # F
468 1 1 0.5842 3.3676324691 20.9304541582 0.0713908976 # C
469 1 2 -0.1563 3.2982380104 21.9967330485 42.9471369957 # F
470 1 2 -0.1736 2.9737184797 20.2521253125 0.6366884685 # F
471 1 2 -0.1844 2.4861284159 20.8238485066 42.1436216285 # F
472 1 3 -0.2516 4.3424306524 20.2815811102 1.8517908623 # Oc
473 1 1 0.4557 4.2618758509 20.2386483931 2.8777717926 # C
474 1 2 -0.1368 3.6157191584 21.0612806297 3.2391611146 # F
475 1 2 -0.1393 4.7581540992 19.8047936247 4.1580436335 # F
476 1 1 0.1062 4.7644364437 20.9447090458 2.2274564227 # C
477 1 2 -0.1457 4.2117008571 22.4495572662 2.5886496229 # F
478 1 2 -0.1482 5.5977678852 20.9298070425 2.6347874951 # F
479 1 4 1.1345 5.2227048630 20.7157803218 1.2762899856 # S
480 1 5 -0.6371 5.8512988258 21.2691990182 0.7108293812 # Os
481 1 5 -0.6371 5.0396986960 19.4727756470 0.9385005602 # Os
482 1 5 -0.6371 4.6671305635 21.3997061628 0.9407714596 # Os
483 1 6 1.0000 5.1302893597 22.0836426168 0.7542360876 # Na
484 1 1 0.3275 5.8079566907 18.1480084570 0.0810349432 # C
485 1 2 -0.1576 5.8932817160 17.0896298103 42.4056285056 # F
486 1 2 -0.1576 5.3204446339 18.0179928366 42.2700466030 # F
487 1 1 0.3275 6.3295783782 19.0978993496 43.0775340380 # C
488 1 2 -0.1576 6.2924807799 19.3428682915 1.0502268774 # F
489 1 2 -0.1576 5.5993392651 19.0919182855 42.0991958839 # F