LAMMPS output created by EMC v9.4.4, build Jul 30 2020 09:28:04

        7364  atoms
6447 bonds
10220 angles
13377 dihedrals

           8  atom types
           7  bond types
          12  angle types
          14  dihedral types

             0    41.91517271  xlo xhi
             0    41.91517271  ylo yhi
             0    41.91517271  zlo zhi

Masses

       1   12.01115  # C
       2   18.99840  # F
       3   15.99940  # GFOc
       4   32.06400  # GGS
       5   15.99940  # GOs      
	   6    22.990 	 # Na
       7    1.00797  # WH
       8    15.99940 # WO

Atoms

1 1 1 0.3275 31.6648194382 16.4915028650 25.2775572861 # C
2 1 2 -0.1576 31.6396176134 15.4481538615 24.9673061631 # F
3 1 2 -0.1576 31.1256984206 17.3660176471 24.9492701183 # F
4 1 1 0.3275 32.3145707867 16.8221927794 24.3522021885 # C
5 1 2 -0.1576 31.4216761108 17.7589673432 23.4365347291 # F
6 1 2 -0.1576 32.8941498074 17.6297861878 24.6315844924 # F
7 1 1 0.3275 32.6893895207 16.1150727728 24.0534949597 # C
8 1 2 -0.1576 32.2451105777 15.2858120405 23.8057674164 # F
9 1 2 -0.1576 33.3097409663 15.5597650115 24.7880094202 # F
10 1 1 0.3275 34.0988431691 15.9150188891 24.1180530375 # C
11 1 2 -0.1576 34.9216635044 16.3779084709 24.3564583497 # F
12 1 2 -0.1576 33.7198625933 14.9370890185 24.3170312009 # F
13 1 1 0.3275 34.7154245523 14.8357399566 24.1258869449 # C
14 1 2 -0.1576 35.6755299252 15.0064572367 23.8757330657 # F
15 1 2 -0.1576 34.2039000294 13.8967293087 23.6618796519 # F
16 1 1 0.3275 35.4536486887 15.0285107442 24.9290861936 # C
17 1 2 -0.1576 35.6542073278 14.1554926800 24.9119747829 # F
18 1 2 -0.1576 34.6978391115 14.9694459282 25.6248764563 # F
19 1 1 0.3275 36.4872633501 15.7820627006 24.3345845757 # C
20 1 2 -0.1576 36.7148643183 15.4720654122 22.9013493566 # F
21 1 2 -0.1576 37.2250892445 15.2699916602 23.7868722158 # F
22 1 1 0.3275 36.7562895217 16.4842932340 25.2942593741 # C
23 1 2 -0.1576 35.7652296775 16.7561273805 25.9131874212 # F
24 1 2 -0.1576 37.3871913691 15.8901687318 26.0415611765 # F
25 1 1 0.3275 37.8012783383 17.0516139808 25.4851306081 # C
26 1 2 -0.1576 38.1461448072 16.1681895137 26.1050563653 # F
27 1 2 -0.1576 38.0567919572 17.6159474399 24.8596729905 # F
28 1 1 0.3275 39.0299511250 17.2843583690 26.1942364740 # C
29 1 2 -0.1576 38.8643753231 18.1339802953 25.3652997100 # F
30 1 2 -0.1576 40.0134054603 16.9229144504 25.8187208568 # F
31 1 1 0.3275 38.5365367002 17.1866422522 27.1647127126 # C
32 1 2 -0.1576 38.5814047458 16.7068029006 27.8471983643 # F
33 1 2 -0.1576 38.7294889754 17.5583132990 28.5092494083 # F
34 1 1 0.3275 38.0020197741 18.0026694014 26.7750799061 # C
35 1 2 -0.1576 37.3499547616 17.0258194533 26.5367099443 # F
36 1 2 -0.1576 37.1386818746 18.7648504104 26.8296153250 # F
37 1 1 0.3275 38.4878191201 19.2081641975 27.2094624707 # C
38 1 2 -0.1576 38.9991882456 19.2492461552 26.2115772815 # F
39 1 2 -0.1576 38.5516811482 18.0342422027 27.7011959567 # F
40 1 1 0.3275 38.5084423835 19.9815334355 27.8068726409 # C
41 1 2 -0.1576 39.5526407306 19.8016454866 28.2688516391 # F
42 1 2 -0.1576 38.0772720006 19.7357498927 28.5962610411 # F
43 1 1 0.2465 38.0857756466 20.8428031682 27.0885425039 # C
44 1 2 -0.1336 39.0792666943 21.3999937877 27.3402034266 # F
45 1 2 -0.1336 37.6798092541 21.0957583863 25.7536591275 # F
46 1 1 0.1317 37.3491440730 21.2749667606 27.3320077181 # C
47 1 2 -0.1193 37.9930933843 22.0957514554 28.1038324557 # F
48 1 3 -0.3109 37.0938628542 20.1522946170 27.3863831432 # GFOc
49 1 1 0.4954 37.6110787044 19.3380607090 28.0305016086 # C
50 1 2 -0.1280 38.7484452101 19.0364965847 27.8144748760 # F
51 1 2 -0.1559 36.9503482046 19.8315455226 28.4994496244 # F
52 1 1 0.0465 36.5990196227 18.4405623416 27.9217505165 # C
53 1 2 -0.1122 37.0636606828 17.2963629392 27.4327980272 # F
54 1 1 0.5842 36.5667628251 18.0695227915 28.9810213500 # C
55 1 2 -0.1563 35.8039047750 18.3578829088 29.5536476356 # F
56 1 2 -0.1736 37.5556060523 17.9008540425 28.6949187743 # F
57 1 2 -0.1844 36.6606883046 16.8302522875 28.7639940205 # F
58 1 3 -0.2516 35.6704161541 18.3981963942 27.5223945019 # GFOc
59 1 1 0.4557 34.6553937058 19.0631157749 27.2204787108 # C
60 1 2 -0.1368 33.7156645637 18.9750895086 28.3594851124 # F
61 1 2 -0.1393 34.4195171274 20.0719926455 26.8702628537 # F
62 1 1 0.1062 34.1936473718 18.7338046208 26.5432089015 # C
63 1 2 -0.1457 33.6579613197 19.4252496439 27.0580611349 # F
64 1 2 -0.1482 33.7272623208 17.5269229032 26.9858241140 # F
65 1 4 1.1345 34.4583487992 18.8617883826 25.1581564799 # GGS
66 1 5 -0.6371 34.2091323921 18.3534414724 24.4691322848 # GOs
67 1 5 -0.6371 35.2505433912 19.0356442040 25.2279601446 # GOs
68 1 5 -0.6371 34.4969849339 19.7463102662 24.4175867144 # GOs
69 1 6 1.0000 35.5264373320 19.8634301891 24.0565815221 # Na
70 1 1 0.3275 36.4624271248 21.5105905927 26.2361110761 # C
71 1 2 -0.1576 36.8507866827 21.8789713820 25.6908372656 # F
72 1 2 -0.1576 35.7484031431 20.9147757956 26.0777626647 # F
73 1 1 0.3275 35.8351841673 21.8389868126 27.0982408555 # C
74 1 2 -0.1576 36.4458283960 22.5082971448 27.5243636512 # F
75 1 2 -0.1576 35.2351170454 22.2967591251 26.5316037591 # F
76 1 1 0.3275 34.7580484888 22.0692807464 27.4405428273 # C
77 1 2 -0.1576 35.1975477412 22.8940886656 28.2601150810 # F
78 1 2 -0.1576 34.1925101651 21.5138282524 28.4330895696 # F
79 1 1 0.3275 34.2898251814 22.1969474681 26.4764370346 # C
80 1 2 -0.1576 34.6922465251 22.5584316191 25.1130038570 # F
81 1 2 -0.1576 33.7024047385 23.2227934857 26.3665509619 # F
82 1 1 0.3275 33.6673066576 21.5113972942 26.7452900343 # C
83 1 2 -0.1576 34.5150103594 20.9439284902 26.6481737623 # F
84 1 2 -0.1576 33.6413157633 21.2366664103 27.6579338045 # F
85 1 1 0.3275 32.6518207391 21.0612935745 26.8712773717 # C
86 1 2 -0.1576 32.2503111677 22.0881175151 27.0712890946 # F
87 1 2 -0.1576 32.6320256550 19.9685401898 26.4962555997 # F
88 1 1 0.3275 32.0144671979 20.8199211546 27.5526890770 # C
89 1 2 -0.1576 32.6233031708 20.8500491183 28.7878822578 # F
90 1 2 -0.1576 31.8133207104 19.8084190112 27.3293868287 # F
91 1 1 0.3275 30.9672389636 21.8233794378 27.2448494720 # C
92 1 2 -0.1576 31.2663535152 22.5018954264 28.2401276361 # F
93 1 2 -0.1576 30.9681976524 21.9962445154 26.3339014268 # F
94 1 1 0.3275 30.2174213798 21.4398208824 27.6143435487 # C
95 1 2 -0.1576 29.1811424050 20.9268515245 28.1548307882 # F
96 1 2 -0.1576 29.7291457570 20.3309086080 27.7329499031 # F
97 1 1 0.3275 30.1396604507 22.6059868166 27.3691989469 # C
98 1 2 -0.1576 30.6211394339 23.7319174097 27.3030735312 # F
99 1 2 -0.1576 30.5716085479 23.3602798245 28.2504420482 # F
100 1 1 0.3275 29.0815573069 22.4401714568 27.2326575391 # C
101 1 2 -0.1576 28.6815636094 22.6398532871 26.6605794609 # F
102 1 2 -0.1576 28.9120591062 22.6830530453 28.0341304420 # F
103 1 1 0.3275 29.3105435862 21.8569202879 26.9357502274 # C
104 1 2 -0.1576 29.3370003024 21.7830085372 28.0945183842 # F
105 1 2 -0.1576 29.0867090526 20.9723934029 26.5160970333 # F
106 1 1 0.3275 30.0572174787 22.0818501184 26.6717874791 # C
107 1 2 -0.1576 30.3216114892 21.2148645032 26.7026312537 # F
108 1 2 -0.1576 30.9811071854 22.6857912214 27.0527262492 # F
109 1 1 0.3275 29.9714243671 23.0136546445 26.0123884830 # C
110 1 2 -0.1576 30.3548451037 24.0872589218 25.5977203141 # F
111 1 2 -0.1576 29.4526136012 23.5865727218 26.2836819396 # F
112 1 1 0.2465 30.0505021201 22.3370427704 24.7249952306 # C
113 1 2 -0.1336 29.5790513115 21.3548251041 24.8576411332 # F
114 1 2 -0.1336 30.4921745004 23.3537783253 24.6281899897 # F
115 1 1 0.1317 29.8353996970 22.6006293128 23.1728249924 # C
116 1 2 -0.1193 29.3112077741 23.4498927903 23.1827780730 # F
117 1 3 -0.3109 29.8198535584 23.3527473123 22.2874820173 # GFOc
118 1 1 0.4954 29.3340360995 24.2949045080 21.8134268188 # C
119 1 2 -0.1280 30.4529512135 24.7204579947 22.4691412933 # F
120 1 2 -0.1559 29.7418814619 24.0444495232 20.8251837999 # F
121 1 1 0.0465 28.8829688813 24.9913543230 21.5653276179 # C
122 1 2 -0.1122 28.9970210524 24.7939218805 20.5478492032 # F
123 1 1 0.5842 29.3810641405 26.4434766378 21.3200385292 # C
124 1 2 -0.1563 28.7744444524 26.2820709696 21.9260173257 # F
125 1 2 -0.1736 29.8616946453 27.4068909850 22.1163852648 # F
126 1 2 -0.1844 30.1852301487 26.4744833023 20.5104763539 # F
127 1 3 -0.2516 27.6655474517 24.7105057825 21.6789324050 # GFOc
128 1 1 0.4557 26.3170958157 24.7963057813 21.7250534543 # C
129 1 2 -0.1368 26.4535798503 25.9750490177 21.7623706705 # F
130 1 2 -0.1393 25.4242099553 24.6601478266 21.3781959448 # F
131 1 1 0.1062 25.8442893298 23.7494468689 22.1873430427 # C
132 1 2 -0.1457 26.4919140542 23.2073063975 21.3852259543 # F
133 1 2 -0.1482 25.0354398665 24.2340114556 22.4878839691 # F
134 1 4 1.1345 24.8309860626 23.1176012221 22.5769621217 # GGS
135 1 5 -0.6371 24.8339221209 22.0863408078 23.3325329934 # GOs
136 1 5 -0.6371 25.3338115983 22.6207066511 21.5417691613 # GOs
137 1 5 -0.6371 23.6658028747 23.7731107367 22.2851295655 # GOs
138 1 6 1.0000 22.5733705309 23.4708976806 21.8148705585 # Na
139 1 1 0.3275 30.1080277764 21.8012514931 23.1376492245 # C
140 1 2 -0.1576 30.6015504548 21.8069314858 24.0132330586 # F
141 1 2 -0.1576 30.6321116381 21.7457901700 22.1027982735 # F
142 1 1 0.3275 29.2960146854 21.2329103776 23.2885179712 # C
143 1 2 -0.1576 28.3800529891 21.5380013352 22.6198584350 # F
144 1 2 -0.1576 29.6816190019 20.3865162357 23.2520547877 # F
145 1 1 0.3275 28.6821200791 21.2109597769 24.0160747113 # C
146 1 2 -0.1576 28.9134389432 21.9279341692 24.9003064799 # F
147 1 2 -0.1576 28.0382704868 22.0251037647 23.2661477020 # F
148 1 1 0.3275 28.5709159353 20.0916801675 24.3104590020 # C
149 1 2 -0.1576 27.5565708083 19.4277928080 25.0784457450 # F
150 1 2 -0.1576 29.2199687513 19.8133515111 23.8341245763 # F
151 1 1 0.3275 29.2975960525 19.4213200201 25.0560812213 # C
152 1 2 -0.1576 28.3852294270 19.5425889291 25.8237970563 # F
153 1 2 -0.1576 29.3225453038 18.7053573174 24.8610210763 # F
154 1 1 0.3275 30.0368521090 19.8607143195 24.8704420099 # C
155 1 2 -0.1576 29.4467920134 20.3734366828 24.3618422882 # F
156 1 2 -0.1576 30.2179721314 18.6591208012 24.3536438343 # F
157 1 1 0.3275 30.8024536710 20.3913090903 25.3171150018 # C
158 1 2 -0.1576 31.4768975409 20.9362009827 25.7780397538 # F
159 1 2 -0.1576 30.3544671875 19.7843185450 26.3377114230 # F
160 1 1 0.3275 31.1943357315 19.3718373330 24.7508366974 # C
161 1 2 -0.1576 30.6645405328 18.5894651632 25.3247625880 # F
162 1 2 -0.1576 31.9535601210 19.1560664824 24.3326901446 # F
163 1 1 0.3275 31.8498094048 20.2305241507 24.2587295257 # C
164 1 2 -0.1576 32.0435823451 21.2522239087 24.9299087221 # F
165 1 2 -0.1576 32.9087515331 20.1337015171 23.8305293905 # F
166 1 1 0.3275 30.7235322136 20.6197999028 23.5828459910 # C
167 1 2 -0.1576 30.1704451016 20.7912634111 24.7782357447 # F
168 1 2 -0.1576 30.8143795547 19.7371588913 22.7214692230 # F
169 1 1 0.3275 31.0665175005 21.8035739877 23.2584409669 # C
170 1 2 -0.1576 30.7131893320 22.4431742379 23.9474510023 # F
171 1 2 -0.1576 31.1765250852 22.5373867739 22.7170578918 # F
172 1 1 0.3275 32.0840767013 21.5488636179 24.1525234155 # C
173 1 2 -0.1576 32.7707697488 22.4462589944 24.1946540632 # F
174 1 2 -0.1576 31.2955928972 20.7467539827 24.2125114327 # F
175 1 1 0.3275 32.5539624424 21.7255947448 25.3199553933 # C
176 1 2 -0.1576 31.8117970146 20.5604625297 25.4974753461 # F
177 1 2 -0.1576 33.4353384195 21.4283053471 24.7067454334 # F
178 1 1 0.3275 32.2611038243 22.4266962708 25.3848044001 # C
179 1 2 -0.1576 31.4489133817 22.8310869391 24.6070691385 # F
180 1 2 -0.1576 32.9353143622 23.3319092767 25.3413795233 # F
181 1 1 0.2465 32.1838059786 21.9477398867 26.4036883072 # C
182 1 2 -0.1336 31.7768977162 22.3186755304 27.5641444797 # F
183 1 2 -0.1336 31.4003891014 21.0882654387 26.3499696515 # F
184 1 1 0.1317 33.1890698923 22.0630468479 26.3335273458 # C
185 1 2 -0.1193 33.3021249809 22.6236584804 24.9239467500 # F
186 1 3 -0.3109 33.5109873195 22.3226191781 26.9684032400 # GFOc
187 1 1 0.4954 33.5931451260 22.7912033323 28.1609957450 # C
188 1 2 -0.1280 34.3774056955 23.3429623952 27.5529907000 # F
189 1 2 -0.1559 32.6785923694 23.1628938975 27.6381581447 # F
190 1 1 0.0465 33.2107328709 23.2971701454 28.8254531341 # C
191 1 2 -0.1122 32.2031931284 23.0044968507 28.4502601189 # F
192 1 1 0.5842 33.3609228016 24.4594037534 29.0899484475 # C
193 1 2 -0.1563 34.4002876748 24.1179106222 29.4876252302 # F
194 1 2 -0.1736 32.4238864499 25.1740154241 29.0038880693 # F
195 1 2 -0.1844 33.4356909351 24.7376486090 28.2647039768 # F
196 1 3 -0.2516 33.9520893210 22.8351589097 29.6876812245 # GFOc
197 1 1 0.4557 34.4016860817 23.2472610930 30.4353084513 # C
198 1 2 -0.1368 33.9547764993 23.8502941568 30.2843783258 # F
199 1 2 -0.1393 35.4456947480 23.4150302214 29.8824682597 # F
200 1 1 0.1062 35.1859300953 22.2976297013 30.9843651793 # C
201 1 2 -0.1457 34.3806075349 21.3303699476 31.8308321387 # F
202 1 2 -0.1482 35.3332169266 23.1143295336 31.8646415911 # F
203 1 4 1.1345 36.0470213340 21.5652204825 30.6704893626 # GGS
204 1 5 -0.6371 35.8030736730 20.4231125154 30.4625018620 # GOs
205 1 5 -0.6371 35.8147877381 21.6298241558 29.7867716203 # GOs
206 1 5 -0.6371 37.1100811177 21.8144468021 31.1243567921 # GOs
207 1 6 1.0000 37.8957362375 22.4756544261 31.7630141824 # Na
208 1 1 0.3275 33.4586666282 20.9772053464 26.2230326429 # C
209 1 2 -0.1576 34.6869538798 21.4572781989 25.6520270011 # F
210 1 2 -0.1576 32.3571931153 20.8688590830 26.1458902554 # F
211 1 1 0.3275 33.5377421159 19.8971041521 26.3096510122 # C
212 1 2 -0.1576 34.6272790525 19.5904489265 26.3280277176 # F
213 1 2 -0.1576 32.6861765801 19.3297827021 26.0826740760 # F
214 1 1 0.3275 32.8044616002 19.5512496555 27.2609000292 # C
215 1 2 -0.1576 33.3949237599 19.8943205353 28.0138153951 # F
216 1 2 -0.1576 32.5522618347 18.5225258069 27.4773202909 # F
217 1 1 0.3275 32.0770460688 19.1154146978 26.6038573841 # C
218 1 2 -0.1576 30.8778952910 19.0455181522 26.9253125328 # F
219 1 2 -0.1576 31.7714849162 20.1088931942 26.4936295031 # F
220 1 1 0.3275 32.2917931643 17.7502719207 26.3646809728 # C
221 1 2 -0.1576 31.4179891786 17.3538871149 26.6237692652 # F
222 1 2 -0.1576 33.0484198536 17.3422505289 26.4045733883 # F
223 1 1 0.3275 32.7139479524 17.1886018517 25.7575597361 # C
224 1 2 -0.1576 33.4119578207 16.6118239191 26.4534008369 # F
225 1 2 -0.1576 32.4762612305 16.1697044978 25.7534474876 # F
226 1 1 0.3275 33.5143679055 17.6802866726 25.4804842558 # C
227 1 2 -0.1576 34.5752699689 17.5387286072 26.3221172030 # F
228 1 2 -0.1576 33.5729516196 17.7584634728 24.3925220464 # F
229 1 1 0.3275 33.4202642896 18.7727649758 25.4751219878 # C
230 1 2 -0.1576 33.4700148126 18.5609885094 24.6574638252 # F
231 1 2 -0.1576 33.0969381039 18.3071792865 26.0675454704 # F
232 1 1 0.3275 33.5907318450 19.9038487652 25.4810811737 # C
233 1 2 -0.1576 32.6483182121 19.5185764577 25.1918007220 # F
234 1 2 -0.1576 33.2197553346 20.5026836279 25.2149829060 # F
235 1 1 0.3275 35.2698380055 19.9248165578 25.6947263226 # C
236 1 2 -0.1576 35.8521505853 20.3798036365 26.8396430365 # F
237 1 2 -0.1576 35.3772944622 19.0357365720 26.1066497684 # F
238 1 1 0.3275 35.0580277491 21.1220972332 24.7934184020 # C
239 1 2 -0.1576 36.2360715096 21.1887008283 24.2207213760 # F
240 1 2 -0.1576 34.5785976759 21.4611958973 24.0470086161 # F
241 1 1 0.3275 34.1660283849 21.1766240829 24.7747441217 # C
242 1 2 -0.1576 33.6205261934 22.0247095952 25.2716946173 # F
243 1 2 -0.1576 34.6550216569 20.5123019051 25.5336244246 # F
244 1 1 0.3275 33.4479616624 21.1327186852 23.7802893002 # C
245 1 2 -0.1576 32.5830694737 22.0070514462 23.3700577168 # F
246 1 2 -0.1576 32.8963088985 21.1415493199 22.6044552270 # F
247 1 1 0.3275 33.8012542505 20.1770297381 23.6870358574 # C
248 1 2 -0.1576 34.1312134248 20.9746061636 23.1311826942 # F
249 1 2 -0.1576 33.7207851182 19.3346024574 24.5955040479 # F
250 1 1 0.2465 34.2354687536 19.2926712886 22.5223621559 # C
251 1 2 -0.1336 33.9283259697 18.6276136016 21.9880603943 # F
252 1 2 -0.1336 33.5564247453 20.0442237176 22.4637608636 # F
253 1 1 0.1317 34.9828101666 18.9724464250 22.2349455123 # C
254 1 2 -0.1193 35.5645754227 18.5962394171 21.0583953571 # F
255 1 3 -0.3109 35.5973129152 19.7558703703 22.2470096680 # GFOc
256 1 1 0.4954 35.5599328504 20.6298730852 22.4020627252 # C
257 1 2 -0.1280 35.5964994283 21.1639649703 21.1251181221 # F
258 1 2 -0.1559 36.0157762258 19.8686528498 23.4664084365 # F
259 1 1 0.0465 35.0998586816 21.2685114995 23.0458414749 # C
260 1 2 -0.1122 35.1625513932 21.5203525362 24.2385736585 # F
261 1 1 0.5842 34.3988342446 22.0957590840 23.1033485342 # C
262 1 2 -0.1563 33.8858542407 21.8401934774 22.0055837609 # F
263 1 2 -0.1736 33.7611039034 23.3973567926 23.4136903836 # F
264 1 2 -0.1844 33.3993671839 21.9830702228 23.0523049477 # F
265 1 3 -0.2516 34.3280034562 20.7341145680 22.0653557452 # GFOc
266 1 1 0.4557 33.5462320259 19.9652987416 21.2230777501 # C
267 1 2 -0.1368 32.9736664040 20.8398810867 20.1978211403 # F
268 1 2 -0.1393 33.4067369864 19.3465585430 22.2567617745 # F
269 1 1 0.1062 33.7278518033 18.9614248932 20.8043435091 # C
270 1 2 -0.1457 32.7153041999 18.6970546586 20.9451268933 # F
271 1 2 -0.1482 35.0407328661 19.0534956633 20.4415093155 # F
272 1 4 1.1345 33.3933603317 18.9331602638 19.6333291921 # GGS
273 1 5 -0.6371 33.8843673976 19.9656777201 19.6814620931 # GOs
274 1 5 -0.6371 32.1696640498 18.8330502873 19.3345095483 # GOs
275 1 5 -0.6371 34.0189417601 18.4190864472 18.8831592281 # GOs
276 1 6 1.0000 34.5246282897 18.8800720435 18.2292233052 # Na
277 1 1 0.3275 34.8311250039 18.1899059798 22.4685638620 # C
278 1 2 -0.1576 33.9690262721 18.0650045438 23.0939030470 # F
279 1 2 -0.1576 34.7696512126 17.8913497700 21.7496612332 # F
280 1 1 0.3275 35.8899603468 18.0249939804 22.6358964125 # C
281 1 2 -0.1576 36.8043752096 18.7524827494 22.8434150120 # F
282 1 2 -0.1576 35.9134578840 18.0793705857 23.6030939600 # F
283 1 1 0.3275 36.2424812118 16.7021567418 21.9163177698 # C
284 1 2 -0.1576 37.0756184818 16.3756668985 22.3979984120 # F
285 1 2 -0.1576 36.6054324427 17.0729887681 21.3037710688 # F
286 1 1 0.3275 36.2224208651 15.6269423058 21.6219768383 # C
287 1 2 -0.1576 37.0106032250 15.5123207995 20.6490813500 # F
288 1 2 -0.1576 35.2778555064 15.3759726552 21.3853062760 # F
289 1 1 0.3275 35.9361298539 15.3592440201 22.4750026353 # C
290 1 2 -0.1576 36.3676438394 14.2702552897 22.2374005701 # F
291 1 2 -0.1576 35.1047982534 14.9510851734 22.1391838966 # F
292 1 1 0.3275 36.6089501541 15.2253975258 23.6805593681 # C
293 1 2 -0.1576 37.1320764184 16.1442022732 23.7697474215 # F
294 1 2 -0.1576 36.5046523973 14.2494783227 23.9989651922 # F
295 1 1 0.3275 36.9956135682 14.4243412818 24.8861558656 # C
296 1 2 -0.1576 36.5023171587 15.3707138142 25.5076030947 # F
297 1 2 -0.1576 37.3791443234 14.3234849956 26.0804178778 # F
298 1 1 0.3275 36.5341297101 13.9742563503 25.2114212229 # C
299 1 2 -0.1576 36.5622119747 12.8307115881 25.2532442580 # F
300 1 2 -0.1576 35.8246132673 14.0620479026 26.0816368659 # F
301 1 1 0.3275 36.7883925396 14.6345840338 26.8192844303 # C
302 1 2 -0.1576 35.8003547003 15.2024490054 26.7095980174 # F
303 1 2 -0.1576 36.5810540231 14.5170690774 27.8183802824 # F
304 1 1 0.3275 37.9326647786 15.1794942990 26.8042578249 # C
305 1 2 -0.1576 38.3661476489 15.8960185214 27.7435833449 # F
306 1 2 -0.1576 37.1180823202 14.4771622314 27.6612927382 # F
307 1 1 0.3275 38.3363552391 14.9000233621 25.4250124007 # C
308 1 2 -0.1576 38.4100470275 14.1003231243 25.4578912337 # F
309 1 2 -0.1576 37.8573958867 15.4079288903 25.0433393033 # F
310 1 1 0.3275 38.9920048249 15.6048970783 24.9200795722 # C
311 1 2 -0.1576 39.0835842131 16.1795138181 23.9223204016 # F
312 1 2 -0.1576 39.3193780839 16.1589602426 25.7824850507 # F
313 1 1 0.3275 39.6375721993 14.9761888002 24.1924668515 # C
314 1 2 -0.1576 39.1798869053 14.6945833302 23.5385812825 # F
315 1 2 -0.1576 38.7600993306 14.1275730728 24.1924924603 # F
316 1 1 0.3275 40.6787969835 14.9414143774 24.1570362735 # C
317 1 2 -0.1576 40.1368277076 14.5161838324 23.2599637730 # F
318 1 2 -0.1576 41.2331775582 15.9536606867 24.8106915983 # F
319 1 1 0.2465 41.3843675479 14.2582810588 24.8707979090 # C
320 1 2 -0.1336 40.5774648527 13.4026409147 25.7473510690 # F
321 1 2 -0.1336 41.7228802167 13.9126471442 25.5269453131 # F
322 1 1 0.1317 42.3351128134 14.7174129404 24.3693172316 # C
323 1 2 -0.1193 42.8762473875 14.0423947158 24.5613870818 # F
324 1 3 -0.3109 43.1765655462 15.3720625857 23.6478170931 # GFOc
325 1 1 0.4954 43.1787613066 16.5055659880 23.0023373722 # C
326 1 2 -0.1280 43.5775086394 15.6931840706 21.8205259826 # F
327 1 2 -0.1559 43.1771205896 17.4187625744 23.7660936091 # F
328 1 1 0.0465 42.9508467432 17.5025367161 22.7999103595 # C
329 1 2 -0.1122 41.9362441655 17.7430732706 23.3151832487 # F
330 1 1 0.5842 43.6483297054 18.3136979906 22.2807099751 # C
331 1 2 -0.1563 43.8918671287 17.4850338288 21.4924160117 # F
332 1 2 -0.1736 44.5219777356 18.4889783282 22.9915691500 # F
333 1 2 -0.1844 44.1004094764 19.7690677204 21.8870160207 # F
334 1 3 -0.2516 42.1770316201 17.5700187801 22.1911468777 # GFOc
335 1 1 0.4557 41.4058219385 17.3566647115 21.6360145635 # C
336 1 2 -0.1368 40.3198130006 16.2570538521 21.7552117862 # F
337 1 2 -0.1393 40.9584955730 17.5447975185 22.4168651739 # F
338 1 1 0.1062 41.4563039704 17.8159819911 20.7981566867 # C
339 1 2 -0.1457 42.6975217085 18.7819189723 20.5439338290 # F
340 1 2 -0.1482 40.5015672146 18.0060118192 20.9827190715 # F
341 1 4 1.1345 42.2363477318 17.2108023404 19.6192400212 # GGS
342 1 5 -0.6371 42.5486317445 16.2112162644 20.2178450275 # GOs
343 1 5 -0.6371 43.2354861111 17.1901841148 19.4017545654 # GOs
344 1 5 -0.6371 41.6338423239 17.4484154944 18.6389238893 # GOs
345 1 6 1.0000 40.6682954448 17.6327654459 18.7090202038 # Na
346 1 1 0.3275 41.9415686766 15.7307492552 25.0115590324 # C
347 1 2 -0.1576 42.4923546823 16.7673355136 25.1982687788 # F
348 1 2 -0.1576 41.5603490040 16.0281365070 23.7634138855 # F
349 1 1 0.3275 41.2017712481 15.3431118798 25.9452394820 # C
350 1 2 -0.1576 40.7811033595 14.3255095684 25.5777017345 # F
351 1 2 -0.1576 41.6458529047 15.8106530301 27.1162938303 # F
352 1 1 0.3275 40.1689891271 15.9578909317 26.2474247680 # C
353 1 2 -0.1576 39.9200540569 15.2310306842 25.2915731047 # F
354 1 2 -0.1576 39.8703820791 15.2339113649 26.8988653074 # F
355 1 1 0.3275 39.6451722889 16.7296527783 26.4933607463 # C
356 1 2 -0.1576 38.4787854066 16.5038031012 26.5331919305 # F
357 1 2 -0.1576 39.3643393308 16.8321894545 28.2171795426 # F
358 1 1 0.3275 39.7061075924 18.0734074486 26.5598147963 # C
359 1 2 -0.1576 40.6017084523 18.0411421733 27.3158831952 # F
360 1 2 -0.1576 38.6295826696 18.1716585144 26.5887676564 # F
361 1 1 0.3275 39.6476088515 18.5807503795 25.7781508695 # C
362 1 2 -0.1576 40.4518136842 19.1980514533 25.9890471023 # F
363 1 2 -0.1576 39.5289120574 18.3944658784 24.7858240208 # F
364 1 1 0.3275 38.7187737939 19.2815457951 25.7131597881 # C
365 1 2 -0.1576 38.2302428382 19.6651525591 24.7375170284 # F
366 1 2 -0.1576 38.3399230872 19.9967756344 26.6336458214 # F
367 1 1 0.3275 37.5463675799 19.0295590561 25.7786367767 # C
368 1 2 -0.1576 37.0079983907 18.1165399004 26.3599516850 # F
369 1 2 -0.1576 37.0303606273 18.9742758374 25.1450044390 # F
370 1 1 0.3275 37.6922071275 20.4407277537 26.0018681298 # C
371 1 2 -0.1576 39.0239629797 20.2315404931 25.7142450515 # F
372 1 2 -0.1576 38.2983412284 21.3081388796 25.3483459504 # F
373 1 1 0.3275 36.6890639974 20.4821787312 26.2416791375 # C
374 1 2 -0.1576 36.3774264674 19.5727667897 26.0815406948 # F
375 1 2 -0.1576 36.3942970383 20.6689592097 25.2788463160 # F
376 1 1 0.3275 36.4296848044 20.9800553754 27.4192538517 # C
377 1 2 -0.1576 35.4262494306 20.7689429385 27.4779459585 # F
378 1 2 -0.1576 36.7861642992 21.9868140753 28.1316580548 # F
379 1 1 0.3275 36.5398112363 20.6219181368 28.3166076180 # C
380 1 2 -0.1576 37.1784854461 21.4924440901 28.8887455364 # F
381 1 2 -0.1576 37.3689031359 20.7628463170 28.9992502346 # F
382 1 1 0.3275 35.5863563273 20.3490480143 28.8728875998 # C
383 1 2 -0.1576 35.0211780711 20.0765814582 27.7826144204 # F
384 1 2 -0.1576 36.4087835102 19.6501359688 29.8823934439 # F
385 1 1 0.3275 34.8094497335 21.3891215256 29.2828020486 # C
386 1 2 -0.1576 33.8273430873 20.9762704661 28.8764264857 # F
387 1 2 -0.1576 35.0063732080 20.5677140998 30.0096386357 # F
388 1 1 0.2465 34.7632894462 22.2542216879 30.0989013832 # C
389 1 2 -0.1336 34.8303206918 23.3776015599 29.4855721745 # F
390 1 2 -0.1336 35.1063111749 23.2485485758 30.7788933613 # F
391 1 1 0.1317 35.0155303590 21.7888464898 31.0054116882 # C
392 1 2 -0.1193 34.6812283532 22.3694174484 31.6702018695 # F
393 1 3 -0.3109 35.0782394774 20.8859461037 30.6935963384 # GFOc
394 1 1 0.4954 35.2637663292 20.1664783395 31.4020344538 # C
395 1 2 -0.1280 34.9379442486 20.4288591802 32.7746592333 # F
396 1 2 -0.1559 34.4327103581 19.5230582285 31.6191583120 # F
397 1 1 0.0465 36.0095263178 19.6598704675 31.0286191210 # C
398 1 2 -0.1122 37.0662905949 20.4435516474 30.9963845203 # F
399 1 1 0.5842 35.3318923412 19.2115972943 30.3392926256 # C
400 1 2 -0.1563 35.4680246905 18.2354885330 30.6793186376 # F
401 1 2 -0.1736 34.7709502112 19.5920249964 30.5096814793 # F
402 1 2 -0.1844 34.5583001665 18.6938134767 30.1018315596 # F
403 1 3 -0.2516 36.3453294862 19.1800679242 32.2872017286 # GFOc
404 1 1 0.4557 36.5268121712 18.8023199466 33.2972265520 # C
405 1 2 -0.1368 36.5889225786 17.9286250577 32.9377430675 # F
406 1 2 -0.1393 35.5669783867 19.1006839487 33.9670409146 # F
407 1 1 0.1062 37.6748441991 19.0298964208 33.5002436644 # C
408 1 2 -0.1457 37.3425216323 19.2478716565 32.2573339519 # F
409 1 2 -0.1482 38.3036801790 18.2630865340 33.9371566474 # F
410 1 4 1.1345 38.0166737408 19.7935710989 34.1753246500 # GGS
411 1 5 -0.6371 38.8867192921 19.4052261787 34.4209590571 # GOs
412 1 5 -0.6371 38.2866819846 20.9606257436 34.1076751801 # GOs
413 1 5 -0.6371 37.0520404095 19.5633527366 35.0655599156 # GOs
414 1 6 1.0000 36.1797018867 19.3712521457 35.4096119312 # Na
415 1 1 0.3275 35.8651082769 22.0142217514 31.3163633483 # C
416 1 2 -0.1576 35.8232999928 22.7937899537 30.0232096061 # F
417 1 2 -0.1576 36.4274010919 22.4999565363 30.7508059964 # F
418 1 1 0.3275 36.2958473073 21.2823490516 31.5392522329 # C
419 1 2 -0.1576 35.9878429076 20.1962666753 31.8895087523 # F
420 1 2 -0.1576 37.6095356917 21.5323030583 31.7412144445 # F
421 1 1 0.3275 36.0195879493 21.9270728170 32.1543573206 # C
422 1 2 -0.1576 35.8015060416 21.9231168253 33.4654908248 # F
423 1 2 -0.1576 36.9235903146 22.3811210675 31.8548727756 # F
424 1 1 0.3275 34.6553655288 22.2071966187 32.6579409753 # C
425 1 2 -0.1576 34.4290057555 22.1864894692 33.7325973990 # F
426 1 2 -0.1576 35.1692628553 23.4312496620 33.2025953999 # F
427 1 1 0.3275 33.3653415832 22.2423880674 32.4043640544 # C
428 1 2 -0.1576 32.7697285932 22.0281405581 32.8654830247 # F
429 1 2 -0.1576 33.3903003503 23.0981312214 32.6465745718 # F
430 1 1 0.3275 33.1051025935 21.7469542548 31.2426598461 # C
431 1 2 -0.1576 34.0704365701 22.1245556893 30.7717587113 # F
432 1 2 -0.1576 32.3947666890 21.1980529816 30.6996142252 # F
433 1 1 0.3275 32.3122692497 22.1043537449 31.0025584905 # C
434 1 2 -0.1576 31.4355423020 21.3930090174 30.4023279161 # F
435 1 2 -0.1576 32.8160099309 22.5703858174 30.3946392188 # F
436 1 1 0.3275 31.6048026224 22.7224013692 31.2017193604 # C
437 1 2 -0.1576 32.0298313949 23.6701436651 32.1781973471 # F
438 1 2 -0.1576 32.1536143562 23.0261485451 30.4376125906 # F
439 1 1 0.3275 30.0538159557 22.6267316778 31.3818763898 # C
440 1 2 -0.1576 29.2771649235 22.2622489878 31.9170487698 # F
441 1 2 -0.1576 30.1362083125 23.7519172310 31.4461030421 # F
442 1 1 0.3275 29.3379218013 21.6210486924 30.3602818814 # C
443 1 2 -0.1576 28.5414518068 21.8304578176 29.9511977990 # F
444 1 2 -0.1576 30.3926000253 21.2012594088 29.6152689379 # F
445 1 1 0.3275 28.8049079692 20.8986246965 30.9007559012 # C
446 1 2 -0.1576 28.9192585565 20.2717780948 31.7199035818 # F
447 1 2 -0.1576 28.2603924283 21.8764644771 30.9390023336 # F
448 1 1 0.3275 27.6140490063 20.8466036230 30.4252261144 # C
449 1 2 -0.1576 26.8639686608 20.7563213664 30.7001732828 # F
450 1 2 -0.1576 27.2633088283 20.7443127759 29.4334713486 # F
451 1 1 0.3275 27.5298003586 21.2301324589 31.1867703114 # C
452 1 2 -0.1576 26.6952001204 21.3004932635 30.5519108892 # F
453 1 2 -0.1576 28.6731264811 21.4282376723 31.5505171142 # F
454 1 1 0.3275 27.1774127188 21.9599876813 32.0513306304 # C
455 1 2 -0.1576 26.6803188618 21.3928876953 31.4208894885 # F
456 1 2 -0.1576 28.2057172631 22.0753859634 32.2900019165 # F
457 1 1 0.2465 26.6637009812 22.1978166934 32.9520595186 # C
458 1 2 -0.1336 25.9372629774 21.2997367826 33.1756833776 # F
459 1 2 -0.1336 26.1006741139 23.2794197852 32.9209686330 # F
460 1 1 0.1317 27.0938480170 21.5024784833 33.9100020301 # C
461 1 2 -0.1193 26.1088243806 21.7225427207 34.0222494935 # F
462 1 3 -0.3109 27.4104923271 20.3803377928 33.8939387828 # GFOc
463 1 1 0.4954 27.2874694655 19.7366453290 32.8041531568 # C
464 1 2 -0.1280 28.1862715254 20.4784441489 31.7726187067 # F
465 1 2 -0.1559 26.6793050910 19.9820259346 32.1983889420 # F
466 1 1 0.0465 27.6394170435 18.9268853137 33.2076849493 # C
467 1 2 -0.1122 26.9692452404 18.5366660545 32.1493458770 # F
468 1 1 0.5842 28.8903910714 18.7253361259 34.0341181111 # C
469 1 2 -0.1563 29.1923425598 17.9398188675 34.6706916747 # F
470 1 2 -0.1736 30.0698512229 18.3764343393 33.1666082792 # F
471 1 2 -0.1844 28.6067723384 19.5890598669 34.6032724250 # F
472 1 3 -0.2516 27.0739903872 18.2527479018 33.5056959061 # GFOc
473 1 1 0.4557 26.6708453436 18.5922850827 34.5387363994 # C
474 1 2 -0.1368 25.9107201544 19.0513434833 34.0654829047 # F
475 1 2 -0.1393 27.6065135189 18.5874497686 34.6357237431 # F
476 1 1 0.1062 26.4956155904 19.1314701897 35.7496956169 # C
477 1 2 -0.1457 27.2163441088 19.8449293702 35.9695997741 # F