LAMMPS output created by EMC v9.4.4, build Aug  6 2019 08:14:42

        7994  atoms
6867 bonds
10430 angles
13377 dihedrals

           8  atom types
           7  bond types
          12  angle types
          14  dihedral types

             0    43.07791893  xlo xhi
             0    43.07791893  ylo yhi
             0    43.07791893  zlo zhi

Masses

  	   1   12.01115  # C
       2   18.99840  # F
       3   15.99940  # Oc
       4   32.06400  # S
       5   15.99940  # Os       
	   6    22.990 	 # Na
       7    1.00797  # H
       8    15.99940  # O

Atoms

1 1 1 0.3275 24.4059137999 31.7595075171 12.3325060461 # C
2 1 2 -0.1576 25.1263290661 31.1299944020 11.6428139974 # F
3 1 2 -0.1576 24.0882833494 30.9624496101 12.4285604928 # F
4 1 1 0.3275 23.3694084945 31.2551001192 12.9909944025 # C
5 1 2 -0.1576 22.8058010886 30.3131523285 12.5944424307 # F
6 1 2 -0.1576 23.7101480328 31.3068595195 13.8623837327 # F
7 1 1 0.3275 22.8809670750 32.1122144029 12.3780148460 # C
8 1 2 -0.1576 23.2513060702 32.1584455681 11.6306286536 # F
9 1 2 -0.1576 22.3520631702 33.2442975989 12.0446945233 # F
10 1 1 0.3275 21.7201429668 31.8285904422 12.6163165264 # C
11 1 2 -0.1576 20.8545600175 32.3462514090 12.2685653547 # F
12 1 2 -0.1576 22.0787919620 31.0871091629 12.1729537115 # F
13 1 1 0.3275 21.0693994040 31.8100536895 13.4152486849 # C
14 1 2 -0.1576 20.8903110775 32.9723333639 13.4376609950 # F
15 1 2 -0.1576 20.4110654830 31.4113950588 12.7612743415 # F
16 1 1 0.3275 21.6161348443 31.5614128502 14.0596995696 # C
17 1 2 -0.1576 21.4131849428 32.4389982597 14.4991553212 # F
18 1 2 -0.1576 22.5613543525 31.8729615497 13.4855520474 # F
19 1 1 0.3275 21.4329651896 30.8248491322 14.1991217857 # C
20 1 2 -0.1576 20.3368330812 30.0295507521 14.4825370808 # F
21 1 2 -0.1576 21.4252883857 30.1277239202 15.2509429834 # F
22 1 1 0.3275 22.0040095496 30.2023523604 13.5687122081 # C
23 1 2 -0.1576 21.2354559474 30.3046501757 12.3851027624 # F
24 1 2 -0.1576 22.9335202661 30.7057803491 14.0039542908 # F
25 1 1 0.3275 22.1580125076 28.8034749825 14.1384932224 # C
26 1 2 -0.1576 21.9871052310 29.4102658230 15.1776189500 # F
27 1 2 -0.1576 22.1686732856 28.3961028619 13.2587652931 # F
28 1 1 0.3275 21.8970394248 27.7309397721 14.2717447639 # C
29 1 2 -0.1576 23.1764659339 27.4524496214 14.6976727644 # F
30 1 2 -0.1576 21.3538722373 27.1419838333 13.7730962055 # F
31 1 1 0.3275 20.8188445776 28.0168523273 14.6069810535 # C
32 1 2 -0.1576 20.3884656843 28.1783294522 15.6776934993 # F
33 1 2 -0.1576 20.6566316676 26.9071653035 14.4798173809 # F
34 1 1 0.3275 19.9666980129 28.1336022932 13.7807899365 # C
35 1 2 -0.1576 19.0385723899 27.3666690313 13.7212796423 # F
36 1 2 -0.1576 20.5208391868 29.1612505384 13.6457138050 # F
37 1 1 0.3275 19.8712512133 27.9200586643 13.0481681143 # C
38 1 2 -0.1576 20.9483234474 28.3124534747 13.6863060271 # F
39 1 2 -0.1576 20.2216882771 27.1609143632 12.4880076560 # F
40 1 1 0.3275 20.0260098086 28.8135890689 12.1508219379 # C
41 1 2 -0.1576 19.8643583493 29.9087457132 12.3437471388 # F
42 1 2 -0.1576 19.4884030722 28.2392761121 11.4024249483 # F
43 1 1 0.2465 20.9510229151 29.3043977298 12.0621760048 # C
44 1 2 -0.1336 20.7120533027 28.4861674628 10.7684237416 # F
45 1 2 -0.1336 21.9736212424 28.6931245708 12.6138072343 # F
46 1 1 0.1317 20.8945374877 30.5006900873 11.6099045221 # C
47 1 2 -0.1193 20.8555398860 31.0957128104 12.2141295420 # F
48 1 3 -0.3109 21.7289083013 30.8323691918 11.3113335354 # Oc
49 1 1 0.4954 21.6320168620 31.3873169246 10.6549936785 # C
50 1 2 -0.1280 22.3305790975 31.2728095722 9.6577226107 # F
51 1 2 -0.1559 21.9356798214 31.9658771832 11.8851663977 # F
52 1 1 0.0465 20.7961092838 31.9147330246 10.8059232130 # C
53 1 2 -0.1122 19.8043131329 31.8063301915 11.5590150253 # F
54 1 1 0.5842 21.5672741269 33.2889844681 10.4609135140 # C
55 1 2 -0.1563 20.7903830617 34.2740254237 10.9444013607 # F
56 1 2 -0.1736 22.4689163042 33.2734135340 10.2503510965 # F
57 1 2 -0.1844 21.9847528673 33.8412024255 10.0616023562 # F
58 1 3 -0.2516 20.1008507674 32.0604970117 10.1673544101 # Oc
59 1 1 0.4557 20.2892226163 31.3644400348 9.4146434353 # C
60 1 2 -0.1368 21.0816450084 31.0213109060 9.7179745045 # F
61 1 2 -0.1393 20.9643163272 31.8050533450 8.6596144990 # F
62 1 1 0.1062 19.3483688367 30.3804474645 9.0466565417 # C
63 1 2 -0.1457 18.6620080232 31.1106600298 8.2966908661 # F
64 1 2 -0.1482 18.3638278019 30.4655569153 9.6085952542 # F
65 1 4 1.1345 19.7359715209 29.4384847977 9.0179752050 # S
66 1 5 -0.6371 19.1324994472 29.0851814680 8.4231042691 # Os
67 1 5 -0.6371 19.3068937594 28.8632818167 9.7598436533 # Os
68 1 5 -0.6371 20.5964847133 29.7630073766 9.0746559697 # Os
69 1 6 1.0000 20.3249219987 30.4366482990 8.3109362484 # Na
70 1 1 0.3275 19.9516249571 30.2164467964 11.1393264391 # C
71 1 2 -0.1576 19.8237026733 30.7298263222 10.4306271687 # F
72 1 2 -0.1576 20.1516455412 29.4907978023 10.4816990700 # F
73 1 1 0.3275 19.2655861831 30.8348191915 11.2769574554 # C
74 1 2 -0.1576 18.8746210364 31.0676422424 11.9315994471 # F
75 1 2 -0.1576 19.6107017070 31.7081324651 10.8677288780 # F
76 1 1 0.3275 18.3579189575 31.1525464124 11.2508268850 # C
77 1 2 -0.1576 17.7851339332 30.4961091153 10.3946857588 # F
78 1 2 -0.1576 18.5688277798 32.3751107635 11.0364341443 # F
79 1 1 0.3275 17.2469330489 30.8528580618 12.2085455231 # C
80 1 2 -0.1576 16.8539203193 30.6134473457 11.3991148501 # F
81 1 2 -0.1576 17.7033696267 31.6719447514 12.1065542088 # F
82 1 1 0.3275 16.2948796191 31.2026475118 12.9791227173 # C
83 1 2 -0.1576 16.9922794993 31.7103988871 13.6639237421 # F
84 1 2 -0.1576 16.0253298970 31.9829505151 12.5171864172 # F
85 1 1 0.3275 15.8234203947 30.2486862289 14.1267058399 # C
86 1 2 -0.1576 15.2614135696 29.7274943901 13.7256626678 # F
87 1 2 -0.1576 17.0370563405 29.8326546699 13.6973179266 # F
88 1 1 0.3275 15.3130857794 30.8183560299 15.0681535648 # C
89 1 2 -0.1576 15.4598412647 31.3681889017 14.2951992700 # F
90 1 2 -0.1576 14.8994674428 31.4371916135 15.7239847254 # F
91 1 1 0.3275 16.5169106429 30.2313079679 15.6922621517 # C
92 1 2 -0.1576 16.4152698549 29.8941665392 14.9640396929 # F
93 1 2 -0.1576 17.3774578667 30.9036146256 15.5989980516 # F
94 1 1 0.3275 16.3038136665 29.8436489140 16.3646975809 # C
95 1 2 -0.1576 16.6135039959 30.2761418759 17.1707555406 # F
96 1 2 -0.1576 16.5639608844 28.9695976071 16.3561904912 # F
97 1 1 0.3275 15.3487033019 29.2566196104 15.8704988041 # C
98 1 2 -0.1576 14.9628674138 28.5045934036 16.3985096111 # F
99 1 2 -0.1576 15.9470501306 28.7620899926 15.0967972289 # F
100 1 1 0.3275 14.5343198976 29.7252646488 16.0234273327 # C
101 1 2 -0.1576 14.3373462553 29.7575614959 17.1456772410 # F
102 1 2 -0.1576 15.2770597382 30.5452434570 16.2736440386 # F
103 1 1 0.3275 13.7467983956 29.9238118157 15.6431131121 # C
104 1 2 -0.1576 13.2649438888 30.1155169494 16.7258538588 # F
105 1 2 -0.1576 14.0240097552 31.1054983145 15.8774877873 # F
106 1 1 0.3275 13.5120451714 30.0153265574 14.4948547921 # C
107 1 2 -0.1576 12.8180585939 29.4523007740 14.4673017130 # F
108 1 2 -0.1576 12.5641034745 30.5697629095 13.6958834855 # F
109 1 1 0.3275 14.3904362687 29.8844566524 14.0541782663 # C
110 1 2 -0.1576 14.9349184300 30.8287536655 13.7196750639 # F
111 1 2 -0.1576 13.9550897595 30.1480614232 13.1000534559 # F
112 1 1 0.2465 14.7957348655 28.7753149386 13.8628432478 # C
113 1 2 -0.1336 15.2575449012 28.2027595818 13.6687351252 # F
114 1 2 -0.1336 13.9283750874 28.2142340801 14.0910732363 # F
115 1 1 0.1317 14.8643348923 28.9960718025 12.8895383327 # C
116 1 2 -0.1193 15.2507316203 29.7922670768 12.4518406537 # F
117 1 3 -0.3109 15.2098162011 28.0625555076 12.4135174561 # Oc
118 1 1 0.4954 16.2548957687 27.8153423228 12.4851059923 # C
119 1 2 -0.1280 16.2095835477 27.5358836223 11.6208472343 # F
120 1 2 -0.1559 16.3036216368 27.1646853405 12.9014731032 # F
121 1 1 0.0465 16.5096235509 28.6519592948 13.4271221216 # C
122 1 2 -0.1122 16.2014600977 29.2557566285 12.4970584330 # F
123 1 1 0.5842 17.3506944774 28.5589514821 13.9465014950 # C
124 1 2 -0.1563 17.8408851061 28.6100222658 13.1213480082 # F
125 1 2 -0.1736 16.7149203316 29.0566688254 14.4191084025 # F
126 1 2 -0.1844 18.1890322908 28.3666001898 14.5279076975 # F
127 1 3 -0.2516 16.0605556800 28.2656594660 14.2766704895 # Oc
128 1 1 0.4557 15.7266105154 29.2534081459 14.3120671494 # C
129 1 2 -0.1368 16.0894785925 29.3374961004 13.5759096036 # F
130 1 2 -0.1393 14.8358094196 30.2676369073 14.5047991972 # F
131 1 1 0.1062 14.7802360201 28.3706980069 14.6178378001 # C
132 1 2 -0.1457 14.0398134181 28.9146422409 14.7249010941 # F
133 1 2 -0.1482 14.4555550325 27.2764544610 13.8042806287 # F
134 1 4 1.1345 14.7834435937 27.7879426176 15.5297734645 # S
135 1 5 -0.6371 15.5697560451 27.6321605970 16.1027586580 # Os
136 1 5 -0.6371 15.3251028571 26.9444041014 14.8780451747 # Os
137 1 5 -0.6371 13.7809086745 27.5044922978 15.6905664669 # Os
138 1 6 1.0000 13.7909161315 26.3541010996 15.2053936595 # Na
139 1 1 0.3275 14.0175389824 28.7717532846 12.3076137746 # C
140 1 2 -0.1576 13.4164857300 29.0894667587 13.2458321443 # F
141 1 2 -0.1576 13.6502510342 27.8963938045 12.1706328853 # F
142 1 1 0.3275 13.9420008836 29.1308887226 11.0284666050 # C
143 1 2 -0.1576 12.8251033154 29.7675431756 10.6261819864 # F
144 1 2 -0.1576 14.5466749313 30.0537482224 11.2974667949 # F
145 1 1 0.3275 14.4807118213 28.4838428740 10.0990325869 # C
146 1 2 -0.1576 14.1041842898 27.4339723132 9.3175422651 # F
147 1 2 -0.1576 14.9631623982 28.1640200656 10.9448415449 # F
148 1 1 0.3275 14.9497524517 29.0958086229 9.2370579729 # C
149 1 2 -0.1576 14.0509591484 28.8393599551 8.7439353966 # F
150 1 2 -0.1576 15.3775271358 29.9372352802 8.7153769177 # F
151 1 1 0.3275 14.9286966543 29.9767699129 9.6180357211 # C
152 1 2 -0.1576 15.3368035991 29.3534310503 10.6832470842 # F
153 1 2 -0.1576 14.1780251067 30.8032728539 9.8237335874 # F
154 1 1 0.3275 15.3461920246 31.0090595217 8.7927215031 # C
155 1 2 -0.1576 14.5829515463 31.5316789517 8.9387473459 # F
156 1 2 -0.1576 16.1689602003 32.1367637010 8.7426820917 # F
157 1 1 0.3275 15.2988672091 30.5023753753 8.0875886281 # C
158 1 2 -0.1576 14.3887828246 29.7642867697 7.9930878829 # F
159 1 2 -0.1576 15.4304955443 29.8246283805 7.1969355203 # F
160 1 1 0.3275 16.1278286779 30.8367365981 7.3565696818 # C
161 1 2 -0.1576 15.9011780648 31.4008945898 8.1519196890 # F
162 1 2 -0.1576 16.9135809422 31.0900848641 7.0006519215 # F
163 1 1 0.3275 15.9735315468 30.5325498785 6.6611675741 # C
164 1 2 -0.1576 16.2485656081 31.9209301118 6.7987924178 # F
165 1 2 -0.1576 17.0357141192 29.7816655428 6.6540980887 # F
166 1 1 0.3275 15.5785051357 29.8638167188 6.3054328927 # C
167 1 2 -0.1576 15.9953880236 30.6296677569 5.5331220787 # F
168 1 2 -0.1576 16.0966386074 28.8902364028 6.8098245647 # F
169 1 1 0.3275 14.1887172497 29.2465479845 6.1740609155 # C
170 1 2 -0.1576 13.4244633113 29.4017761873 5.0627803828 # F
171 1 2 -0.1576 14.2803712322 29.5014526937 7.3156492889 # F
172 1 1 0.3275 14.3581007550 28.6988932580 6.4358478284 # C
173 1 2 -0.1576 15.1609517337 28.4453639509 5.6998854169 # F
174 1 2 -0.1576 14.8078269633 28.3027281051 7.3959633311 # F
175 1 1 0.3275 13.5022563080 27.9475523773 6.9575573450 # C
176 1 2 -0.1576 12.6207748212 28.1773466548 7.6135003756 # F
177 1 2 -0.1576 12.6107824058 27.6674925757 6.0154751751 # F
178 1 1 0.3275 13.5641473459 26.8025312959 7.0545760342 # C
179 1 2 -0.1576 12.1590731731 26.4691927212 7.1016846926 # F
180 1 2 -0.1576 14.1672924197 26.6548080000 7.9194747814 # F
181 1 1 0.2465 14.6359533603 27.0327279721 6.7008916247 # C
182 1 2 -0.1336 15.3035376750 26.6934596268 5.8030475345 # F
183 1 2 -0.1336 13.9486398434 27.1142249630 5.7934781195 # F
184 1 1 0.1317 15.4184162282 27.6725676619 7.0407429062 # C
185 1 2 -0.1193 16.1409046764 28.3472245455 6.1380846810 # F
186 1 3 -0.3109 15.2096731170 26.7563400781 7.5437513046 # Oc
187 1 1 0.4954 14.9405530830 25.7963384557 8.6196581473 # C
188 1 2 -0.1280 15.4219904407 26.0494298800 9.3846851489 # F
189 1 2 -0.1559 14.9645754738 24.9313805102 7.9114321041 # F
190 1 1 0.0465 15.3076191125 25.0650309468 9.5071882310 # C
191 1 2 -0.1122 15.9203708579 25.4256320223 10.3265059365 # F
192 1 1 0.5842 15.4356431417 23.8684062667 9.8661465798 # C
193 1 2 -0.1563 14.7273019532 24.1568073283 10.4972295075 # F
194 1 2 -0.1736 15.5271379879 23.4031366481 9.0693503141 # F
195 1 2 -0.1844 15.9547664845 23.0427545385 9.9015335720 # F
196 1 3 -0.2516 15.9554584419 24.3477257875 9.1062475044 # Oc
197 1 1 0.4557 16.4079223676 24.4594720126 8.1358696403 # C
198 1 2 -0.1368 17.3283370993 23.7454269132 7.5954259791 # F
199 1 2 -0.1393 16.2837093282 23.7709718921 7.6559203206 # F
200 1 1 0.1062 16.1758317607 25.3534902608 7.7356026670 # C
201 1 2 -0.1457 15.5374954306 25.2718624602 7.2957357785 # F
202 1 2 -0.1482 16.7491775963 26.0206424707 8.6204486075 # F
203 1 4 1.1345 16.4625913584 24.9155393700 6.6912658889 # S
204 1 5 -0.6371 16.1889697764 24.6646165289 5.6696700545 # Os
205 1 5 -0.6371 16.6309592729 23.7198043524 6.6045311253 # Os
206 1 5 -0.6371 17.2876162746 25.0664035377 6.8075635460 # Os
207 1 6 1.0000 17.7791871718 25.7210134990 6.1413558837 # Na
208 1 1 0.3275 15.2822961271 27.8473369186 8.0808454093 # C
209 1 2 -0.1576 14.2762957668 28.1111468472 8.1562856716 # F
210 1 2 -0.1576 15.2981899013 27.1783105968 9.0166217606 # F
211 1 1 0.3275 15.9973508974 28.4336515345 8.3678681516 # C
212 1 2 -0.1576 15.4813179193 28.5674402850 8.9539808840 # F
213 1 2 -0.1576 16.6059799386 29.3319784947 7.9571860741 # F
214 1 1 0.3275 16.5262205562 27.8590812353 8.1959899328 # C
215 1 2 -0.1576 16.2363424032 27.2635379110 7.7557115448 # F
216 1 2 -0.1576 16.8561549692 28.6950026739 7.2786765493 # F
217 1 1 0.3275 17.0287150737 27.8066982425 8.8862562665 # C
218 1 2 -0.1576 17.8262108794 28.6798151178 8.9891431660 # F
219 1 2 -0.1576 17.0621061937 27.6850984311 9.7614076191 # F
220 1 1 0.3275 15.9628108856 27.1940778447 9.6031437470 # C
221 1 2 -0.1576 16.2671054084 25.8695189672 9.7011927697 # F
222 1 2 -0.1576 15.2620035269 28.3278644004 10.1200119303 # F
223 1 1 0.3275 16.4723317696 26.9545461963 10.5482791121 # C
224 1 2 -0.1576 17.0927569154 26.2703792140 10.1682353045 # F
225 1 2 -0.1576 15.6336507840 27.0918449673 11.0769173152 # F
226 1 1 0.3275 16.9783030781 27.8330551990 11.0083488361 # C
227 1 2 -0.1576 18.1796954654 27.4739299869 10.1880549059 # F
228 1 2 -0.1576 16.4962143923 28.3233759185 10.4573924326 # F
229 1 1 0.3275 16.8618313716 28.2603849962 11.8490223745 # C
230 1 2 -0.1576 17.0331779756 27.8235729602 12.6731799631 # F
231 1 2 -0.1576 15.7481148625 28.2187585493 11.3599131164 # F
232 1 1 0.3275 17.6127492947 28.7668765866 11.9282691943 # C
233 1 2 -0.1576 17.7273698358 29.4819034455 12.8631560469 # F
234 1 2 -0.1576 16.8103117268 29.1907565000 11.1543099536 # F
235 1 1 0.3275 18.4064393097 29.2636384221 12.4666139015 # C
236 1 2 -0.1576 18.9150630575 30.1511496667 12.0331606091 # F
237 1 2 -0.1576 18.7913466753 28.6066157077 12.9702031248 # F
238 1 1 0.3275 18.2662396276 29.8766603970 13.3227262492 # C
239 1 2 -0.1576 18.3433393975 29.5280673528 14.1242963889 # F
240 1 2 -0.1576 17.2524514009 30.2555398057 13.0924582129 # F
241 1 1 0.3275 18.8138242682 31.0536363894 13.8014147543 # C
242 1 2 -0.1576 19.4757004457 30.9829784566 13.3007827263 # F
243 1 2 -0.1576 17.9191492734 31.8694021782 14.4318583929 # F
244 1 1 0.3275 19.2294168378 30.7451429387 14.7099847282 # C
245 1 2 -0.1576 19.5730928185 30.2298192713 15.2940969207 # F
246 1 2 -0.1576 18.2488583234 31.1962029864 15.0813645445 # F
247 1 1 0.3275 18.6111246202 32.0918743460 14.4216371168 # C
248 1 2 -0.1576 19.8705206985 32.3928776692 14.9046106387 # F
249 1 2 -0.1576 17.9493397963 32.6707184852 14.8885213501 # F
250 1 1 0.2465 18.4920405908 32.3284799196 13.5811492341 # C
251 1 2 -0.1336 17.7101305551 32.5691434919 13.9059161880 # F
252 1 2 -0.1336 18.5553230548 31.7839363188 12.6440590049 # F
253 1 1 0.1317 18.6418209245 33.1145001703 13.3173608374 # C
254 1 2 -0.1193 19.4882085820 32.2758652537 12.9771242841 # F
255 1 3 -0.3109 18.4438211345 34.1974084227 12.7172712407 # Oc
256 1 1 0.4954 18.0641133290 34.5231432860 11.5845931130 # C
257 1 2 -0.1280 18.1577879820 33.8327405085 10.8299966677 # F
258 1 2 -0.1559 19.1123158850 34.4673690727 11.8246704946 # F
259 1 1 0.0465 17.6888808341 35.4416630315 11.2928983982 # C
260 1 2 -0.1122 17.7094761780 35.7302803553 12.2720249873 # F
261 1 1 0.5842 17.3069001215 35.0119187425 10.2727163722 # C
262 1 2 -0.1563 17.3744133194 34.1266387131 9.9826699600 # F
263 1 2 -0.1736 17.3732963950 35.7463374018 8.9228069092 # F
264 1 2 -0.1844 16.3540030227 34.8813164053 11.1824891223 # F
265 1 3 -0.2516 17.9380748461 36.8282228362 11.5163876894 # Oc
266 1 1 0.4557 17.0318796133 37.3739871013 11.6829439989 # C
267 1 2 -0.1368 17.6714338950 37.8178451079 12.1705423731 # F
268 1 2 -0.1393 17.0734772842 38.2241361711 11.0160221967 # F
269 1 1 0.1062 15.6079564520 37.4383744421 11.6397210030 # C
270 1 2 -0.1457 15.7626586341 37.3866839775 10.3674579476 # F
271 1 2 -0.1482 15.5420430566 36.4896372653 12.1469545277 # F
272 1 4 1.1345 15.1036301375 38.5538959930 12.1465590668 # S
273 1 5 -0.6371 14.4972315194 38.2109294178 12.7411711567 # Os
274 1 5 -0.6371 14.3109114683 39.0209495134 11.2647202256 # Os
275 1 5 -0.6371 15.5774141690 39.5306945899 12.2398745942 # Os
276 1 6 1.0000 16.3218731564 40.5124811817 11.6182432955 # Na
277 1 1 0.3275 18.3680762980 33.3508327017 14.0652969452 # C
278 1 2 -0.1576 18.2618216720 34.2287547458 13.9532223278 # F
279 1 2 -0.1576 17.5160941789 33.8230363478 14.4644326543 # F
280 1 1 0.3275 19.3862923958 33.3377485442 15.0108163290 # C
281 1 2 -0.1576 19.4901357307 32.6124369139 15.6514777120 # F
282 1 2 -0.1576 19.2262204893 34.2802924322 14.2715164905 # F
283 1 1 0.3275 20.4198356625 33.5029443032 15.6483399149 # C
284 1 2 -0.1576 20.9286745113 32.4498069328 15.3279884867 # F
285 1 2 -0.1576 20.4293764172 34.1570406926 16.6135188088 # F
286 1 1 0.3275 21.0084026881 33.7037149660 14.8420172342 # C
287 1 2 -0.1576 21.5413167773 33.8932920142 15.8764277949 # F
288 1 2 -0.1576 21.7450281784 34.2502898429 14.6318585102 # F
289 1 1 0.3275 20.3444748930 33.6539102072 13.6695733579 # C
290 1 2 -0.1576 21.5602233444 33.0494659020 13.4265454307 # F
291 1 2 -0.1576 19.5399953146 33.2510618182 14.1434216253 # F
292 1 1 0.3275 20.0272708941 33.9886528441 12.7309555274 # C
293 1 2 -0.1576 20.4606397002 33.6155475706 11.9820942054 # F
294 1 2 -0.1576 20.1377348257 35.1784814381 12.8725575363 # F
295 1 1 0.3275 19.4533259566 33.2596214409 12.2152717667 # C
296 1 2 -0.1576 18.5332254864 33.0838436340 12.5560592752 # F
297 1 2 -0.1576 20.1835427086 32.5334793695 12.3149479047 # F
298 1 1 0.3275 19.3556627355 33.4664219375 10.9873499720 # C
299 1 2 -0.1576 19.6556171836 32.6124806163 10.6392306770 # F
300 1 2 -0.1576 19.8968956096 33.9012725523 9.9621399411 # F
301 1 1 0.3275 18.5854901768 34.2690085314 10.6281576422 # C
302 1 2 -0.1576 19.1729956081 34.9062267707 11.0418137865 # F
303 1 2 -0.1576 18.0539006207 34.7735323658 9.9514743404 # F
304 1 1 0.3275 17.2508437374 34.1275208297 10.8997429952 # C
305 1 2 -0.1576 16.9580594130 33.8194578888 11.9029120814 # F
306 1 2 -0.1576 16.6064657228 35.0492238905 10.5498329268 # F
307 1 1 0.3275 16.3409970387 33.3710843229 10.5409441413 # C
308 1 2 -0.1576 16.4285838496 33.7443386439 11.7232435069 # F
309 1 2 -0.1576 15.9017087758 33.2492859499 9.4894685024 # F
310 1 1 0.3275 15.7811514588 32.8236653001 10.8075245725 # C
311 1 2 -0.1576 16.3907676841 32.4554744575 10.9837325009 # F
312 1 2 -0.1576 15.4103583041 33.4543768247 11.2911534738 # F
313 1 1 0.3275 15.3614474116 32.8585041285 10.1158525673 # C
314 1 2 -0.1576 15.5528171800 33.6842999561 10.2332558122 # F
315 1 2 -0.1576 15.9568694604 32.0297159204 10.0295060165 # F
316 1 1 0.3275 14.3956903285 32.4575607558 10.0911251535 # C
317 1 2 -0.1576 13.6694338407 31.5577897600 10.0764781506 # F
318 1 2 -0.1576 14.0571689574 32.5313660996 8.8803319621 # F
319 1 1 0.2465 13.7979300488 32.7014126209 11.0385821032 # C
320 1 2 -0.1336 13.1895638446 32.0773208673 11.2064539221 # F
321 1 2 -0.1336 13.7965942547 33.7725946734 12.0164827003 # F
322 1 1 0.1317 13.3904499850 33.6731675166 10.2801743476 # C
323 1 2 -0.1193 13.9092633781 33.4038827405 9.5642289375 # F
324 1 3 -0.3109 12.1995407572 34.0934835211 9.7469197751 # Oc
325 1 1 0.4954 11.2520552008 33.7226831553 8.6578653588 # C
326 1 2 -0.1280 11.6392512804 32.7988290216 7.5483195581 # F
327 1 2 -0.1559 10.7536592161 33.1902511592 8.7965258858 # F
328 1 1 0.0465 10.4858284644 34.6677533792 8.3676973365 # C
329 1 2 -0.1122 9.8378862829 34.3101190577 8.9286980523 # F
330 1 1 0.5842 10.8031973288 35.2881817769 7.6843922875 # C
331 1 2 -0.1563 9.8481402459 34.9357492119 6.9137974609 # F
332 1 2 -0.1736 11.1087968215 36.3827153972 7.4965670054 # F
333 1 2 -0.1844 11.8711499388 35.0435023283 8.3410004956 # F
334 1 3 -0.2516 10.8612217804 35.4579140414 8.3100754038 # Oc
335 1 1 0.4557 11.4423096122 36.7249598298 8.7149544651 # C
336 1 2 -0.1368 11.7823359397 37.1127246889 9.7948284115 # F
337 1 2 -0.1393 10.7916687236 36.1416671901 9.1342038567 # F
338 1 1 0.1062 11.5210907868 37.3471164359 7.8949304138 # C
339 1 2 -0.1457 11.9269116811 38.4447550626 8.7627397933 # F
340 1 2 -0.1482 12.2506636146 36.7822600393 7.4712352985 # F
341 1 4 1.1345 10.3785846248 37.8916514401 7.3220549742 # S
342 1 5 -0.6371 11.2000102688 38.7560745675 7.0737751420 # Os
343 1 5 -0.6371 10.6593887759 38.0387249615 6.0525750836 # Os
344 1 5 -0.6371 9.2246151301 37.4278565839 7.0748797728 # Os
345 1 6 1.0000 8.9308155285 36.9529549685 8.0160223603 # Na
346 1 1 0.3275 12.9938388895 34.7213825157 10.6358966266 # C
347 1 2 -0.1576 12.0871949691 35.1649500455 10.1163581162 # F
348 1 2 -0.1576 12.8467752561 34.4873183924 11.9307095328 # F
349 1 1 0.3275 13.8732016884 35.1828108427 10.4541267205 # C
350 1 2 -0.1576 14.2387987881 35.4946200952 11.4012120161 # F
351 1 2 -0.1576 14.2685204660 33.9431076378 10.3137724526 # F
352 1 1 0.3275 14.6571022983 35.7624350509 9.8105604485 # C
353 1 2 -0.1576 14.8822734911 37.3625226381 10.0530453081 # F
354 1 2 -0.1576 15.0368498830 35.6906203510 8.5485058833 # F
355 1 1 0.3275 15.4369072324 35.2299719748 10.2569903638 # C
356 1 2 -0.1576 15.4687792049 34.2641606677 10.4239923628 # F
357 1 2 -0.1576 14.7446233628 35.2645556615 10.7633599552 # F
358 1 1 0.3275 16.0982541854 35.6358103632 10.3388786834 # C
359 1 2 -0.1576 16.2104692271 36.7240416508 10.8533712585 # F
360 1 2 -0.1576 16.6448018092 35.2882550826 11.2051475245 # F
361 1 1 0.3275 16.2444287691 36.4110407944 9.3508262270 # C
362 1 2 -0.1576 15.8506063293 35.9533310702 8.4143632117 # F
363 1 2 -0.1576 15.3835822797 37.0406689566 9.2291770878 # F
364 1 1 0.3275 17.0744890700 37.5804367761 9.0256115825 # C
365 1 2 -0.1576 17.4935219544 38.1186327759 9.8923297684 # F
366 1 2 -0.1576 16.3223902585 37.3533310240 8.0973496947 # F
367 1 1 0.3275 18.2452456600 37.2248834735 8.5629911095 # C
368 1 2 -0.1576 18.8306574550 37.8572717959 9.0957785643 # F
369 1 2 -0.1576 18.5352353885 36.0155439442 8.8499583836 # F
370 1 1 0.3275 18.4174893575 37.4217696159 7.3347118657 # C
371 1 2 -0.1576 17.9841500204 38.1290722927 6.7179332551 # F
372 1 2 -0.1576 19.4193994501 37.1943298146 6.6954646475 # F
373 1 1 0.3275 18.0812351765 36.6638028700 7.0443983378 # C
374 1 2 -0.1576 17.2976622965 36.1978638731 6.6255438755 # F
375 1 2 -0.1576 18.4369394189 36.5580908534 6.2626538703 # F
376 1 1 0.3275 18.3157857277 35.3800396664 7.6723643052 # C
377 1 2 -0.1576 19.5808215854 34.9329989171 7.9379814511 # F
378 1 2 -0.1576 18.0435607764 35.2511844033 8.6021470891 # F
379 1 1 0.3275 17.7244120964 34.6297220529 7.3526523248 # C
380 1 2 -0.1576 16.7505845787 35.1526384084 8.0805712867 # F
381 1 2 -0.1576 16.9217355451 33.8285368619 6.8186945145 # F
382 1 1 0.3275 18.8019742889 33.9471265511 7.2754525841 # C
383 1 2 -0.1576 18.9318328136 33.8748529794 8.1779209118 # F
384 1 2 -0.1576 19.7884166826 34.0571090226 6.9933057529 # F
385 1 1 0.3275 18.3766642055 33.1975616397 6.6747882372 # C
386 1 2 -0.1576 19.2510369998 32.6247663172 7.4095051342 # F
387 1 2 -0.1576 18.5638278753 33.6104552048 5.6845955551 # F
388 1 1 0.2465 17.3488894783 32.6373493032 6.4965213721 # C
389 1 2 -0.1336 17.6868692900 33.6565712197 5.8766032147 # F
390 1 2 -0.1336 17.0903673468 31.9551365311 7.2573256431 # F
391 1 1 0.1317 16.2809551427 32.2726324716 5.9576870236 # C
392 1 2 -0.1193 15.8900924739 31.9014918148 5.2141154031 # F
393 1 3 -0.3109 16.0357764491 31.2548341888 5.9816974313 # Oc
394 1 1 0.4954 16.4469942866 30.6846375779 4.7434040615 # C
395 1 2 -0.1280 15.9289998420 30.3967049743 3.9100729576 # F
396 1 2 -0.1559 15.6151691211 30.6625220878 4.8777341586 # F
397 1 1 0.0465 17.1609199322 29.9968145555 4.0825683675 # C
398 1 2 -0.1122 17.8941517058 29.6733375349 4.8320442013 # F
399 1 1 0.5842 16.9543301149 29.6736001848 3.5332097057 # C
400 1 2 -0.1563 16.8756943432 30.1616966771 2.7815956195 # F
401 1 2 -0.1736 17.1658356661 28.5637614108 4.1377653706 # F
402 1 2 -0.1844 16.1327380988 29.3472903940 3.5055505716 # F
403 1 3 -0.2516 17.2703419332 30.7915643081 4.0519565446 # Oc
404 1 1 0.4557 17.3238303701 31.7549144804 3.8587534031 # C
405 1 2 -0.1368 16.3315435178 32.5173034331 3.9586467782 # F
406 1 2 -0.1393 17.4942851124 31.8931171823 2.6453308379 # F
407 1 1 0.1062 18.2472451917 32.4088570562 4.4824030543 # C
408 1 2 -0.1457 17.5511395098 32.5887244471 5.0105216342 # F
409 1 2 -0.1482 19.4287165526 32.6285833315 4.7893229352 # F
410 1 4 1.1345 19.2095658407 31.2640524942 4.9114641130 # S
411 1 5 -0.6371 20.1066130437 31.4947466060 5.3473922917 # Os
412 1 5 -0.6371 19.1515052587 30.7817391937 3.7545362848 # Os
413 1 5 -0.6371 19.1851943582 30.3612286321 5.2659862277 # Os
414 1 6 1.0000 19.5989255835 29.3091619594 6.1924802122 # Na
415 1 1 0.3275 15.9237866331 33.1806079841 6.8815765968 # C
416 1 2 -0.1576 15.2103202911 32.6263769790 7.5283637139 # F
417 1 2 -0.1576 16.8581087107 33.5233855006 7.6907518364 # F
418 1 1 0.3275 15.1731228713 33.3945220306 5.7015602786 # C
419 1 2 -0.1576 14.4395126937 32.3448717763 6.3301073448 # F
420 1 2 -0.1576 14.4307398004 34.1253315646 5.4958757143 # F
421 1 1 0.3275 15.9070160429 33.4720946039 5.1599900803 # C
422 1 2 -0.1576 15.7754764975 34.4302704174 4.9098155720 # F
423 1 2 -0.1576 14.9694525474 33.0362411102 4.4173772571 # F
424 1 1 0.3275 16.8165916638 33.1314635894 4.5419744254 # C
425 1 2 -0.1576 17.0827948133 31.8352809017 4.6094784318 # F
426 1 2 -0.1576 17.5657684156 33.7535111832 4.5462200069 # F
427 1 1 0.3275 17.2175294124 33.4376376745 3.2574840409 # C
428 1 2 -0.1576 16.6189721050 33.6234152235 2.9260571797 # F
429 1 2 -0.1576 17.5176637007 33.9977569503 3.7773312489 # F
430 1 1 0.3275 18.3669977337 32.7078618829 2.4260726869 # C
431 1 2 -0.1576 17.1124212906 32.8446383561 2.0881510823 # F
432 1 2 -0.1576 19.2564597370 32.7342775082 1.5473081043 # F
433 1 1 0.3275 18.6153843687 31.5663890112 3.6553790381 # C
434 1 2 -0.1576 19.4211413556 30.9115740216 2.6358713079 # F
435 1 2 -0.1576 19.3779582623 32.2845192279 3.9969643757 # F
436 1 1 0.3275 18.0473573551 30.8678856325 3.9630860256 # C
437 1 2 -0.1576 17.2388169932 31.2944580833 3.1639272282 # F
438 1 2 -0.1576 18.5788765290 30.0733744312 4.5736201652 # F
439 1 1 0.3275 18.0612302486 31.4909083164 4.9229493899 # C
440 1 2 -0.1576 17.6085574304 31.8099329061 5.5374883571 # F
441 1 2 -0.1576 18.5791474135 32.2383095385 4.9093945112 # F
442 1 1 0.3275 18.3604957176 30.6604421332 5.4915776829 # C
443 1 2 -0.1576 17.4678216158 30.4074880638 6.0476508320 # F
444 1 2 -0.1576 18.6997365265 29.5432541677 5.6665270569 # F
445 1 1 0.3275 18.9147578277 31.1432898498 6.2124793928 # C
446 1 2 -0.1576 20.2670219109 30.9029450864 6.4265976234 # F
447 1 2 -0.1576 18.3944385038 31.3378533844 6.9512559918 # F
448 1 1 0.3275 19.6021831852 32.0610150095 6.3452417187 # C
449 1 2 -0.1576 18.8400698609 32.4478472414 6.0448980465 # F
450 1 2 -0.1576 19.9415634617 32.1026562511 7.5912566120 # F
451 1 1 0.3275 20.2807480753 32.5209202164 5.9948912250 # C
452 1 2 -0.1576 19.9204608838 32.0683776971 4.8375520644 # F
453 1 2 -0.1576 20.1787576132 33.3215614241 5.4839015223 # F
454 1 1 0.3275 21.2222566359 33.1665926172 5.8848279687 # C
455 1 2 -0.1576 20.8726467390 32.8323566548 6.6770152800 # F
456 1 2 -0.1576 22.4921867811 33.0025708597 5.6543973783 # F
457 1 1 0.2465 21.0973628545 33.0682339933 4.9753514018 # C
458 1 2 -0.1336 20.3830742852 32.4774054556 4.7604150487 # F
459 1 2 -0.1336 22.2333799641 32.4073238372 4.7026146945 # F
460 1 1 0.1317 20.7691562989 33.7697570896 4.5342173659 # C
461 1 2 -0.1193 21.9104858765 34.0175014346 4.8334922687 # F
462 1 3 -0.3109 20.6995443754 35.0306761510 4.6647440654 # Oc
463 1 1 0.4954 19.9586025547 35.5872831206 5.2539526971 # C
464 1 2 -0.1280 19.4586153971 35.6680745357 4.5312521943 # F
465 1 2 -0.1559 19.7708947592 36.4782102065 5.3502321432 # F
466 1 1 0.0465 20.2995193480 35.5832905912 5.9982914330 # C
467 1 2 -0.1122 19.9901693676 36.5037470980 6.8865114015 # F
468 1 1 0.5842 19.6829625367 34.6619613254 5.4632164243 # C
469 1 2 -0.1563 19.2158054252 33.8351747533 6.2206720166 # F
470 1 2 -0.1736 18.9910662187 35.0804126371 5.1009401052 # F
471 1 2 -0.1844 19.9914508172 34.3011497063 4.6952816757 # F
472 1 3 -0.2516 21.0156949203 34.6760717943 6.6429064417 # Oc
473 1 1 0.4557 21.4222172006 34.5631080620 7.9541166488 # C
474 1 2 -0.1368 21.9383077899 35.3786957148 7.9593514813 # F
475 1 2 -0.1393 20.7481823011 34.5833951130 8.5924442162 # F
476 1 1 0.1062 22.2368142462 33.6595429516 7.7004898093 # C
477 1 2 -0.1457 21.3192617245 33.6090975337 7.0454776234 # F
478 1 2 -0.1482 23.0756306103 33.8860169503 7.0422814271 # F
479 1 4 1.1345 22.9089059558 33.0621602734 8.4681439818 # S
480 1 5 -0.6371 22.6601483366 32.3154940632 9.6984771063 # Os
481 1 5 -0.6371 22.4726615385 31.9683896307 8.2076529051 # Os
482 1 5 -0.6371 23.8728154824 33.2792113068 8.3320027843 # Os