LAMMPS output created by EMC v9.4.4, build Jul 30 2020 09:28:04

        7364  atoms
        6517  bonds
       10290  angles
       13587  dihedrals

           8  atom types
           7  bond types
          12  angle types
          14  dihedral types

             0    41.91517271  xlo xhi
             0    41.91517271  ylo yhi
             0    41.91517271  zlo zhi

Masses

       1   20.00000  # C
       2   20.00000  # F
       3   20.00000  # GFOc
       4   20.00000  # GGS
       5   20.00000  # GOs
       6   20.00000  # Na
       7   20.00000  # WH
       8   20.00000  # WO

Atoms

       1   1  40.8116922340  38.9596189820   2.3966913724       1  0.3275  # C
       2   2  41.3762447918  38.6742219210   1.4870657497       1 -0.1576  # F
       3   2  40.1973096948  39.7131906822   2.4448410552       1 -0.1576  # F
       4   1  41.6528563210  38.9328175163   3.3531420389       1  0.3275  # C
       5   2  42.5745476973  39.3728478863   2.5897304063       1 -0.1576  # F
       6   2  42.3919194262  38.2558566872   3.6627978756       1 -0.1576  # F
       7   1  41.0609389786  38.9880845709   4.3729781200       1  0.3275  # C
       8   2  40.3822396669  39.6553340772   4.3555447172       1 -0.1576  # F
       9   2  41.2805060502  39.0074248352   5.1085071075       1 -0.1576  # F
      10   1  40.9472982725  38.0056497248   3.9658774249       1  0.3275  # C
      11   2  41.9511963710  37.6082707637   3.7940925229       1 -0.1576  # F
      12   2  40.7180240593  37.6068390550   4.4836581195       1 -0.1576  # F
      13   1  40.3494495896  37.5508202527   2.8572269384       1  0.3275  # C
      14   2  40.2453971362  38.3530765883   2.7801090913       1 -0.1576  # F
      15   2  40.5665742517  37.3955609807   1.2959023207       1 -0.1576  # F
      16   1  39.5797110485  36.9682769836   2.3338039473       1  0.3275  # C
      17   2  39.5783219502  36.6975153479   1.1041716069       1 -0.1576  # F
      18   2  40.2967458718  36.4390225351   1.9429546272       1 -0.1576  # F
      19   1  38.7951913282  36.2857662220   3.4054081346       1  0.3275  # C
      20   2  38.3699783041  36.3145833570   3.9557640105       1 -0.1576  # F
      21   2  38.3347809214  37.1994938793   2.4865873779       1 -0.1576  # F
      22   1  38.6588479340  35.2827674461   3.1090052427       1  0.3275  # C
      23   2  38.6278034199  34.6215020201   3.8452952782       1 -0.1576  # F
      24   2  37.2842085405  35.5748648756   2.8689078565       1 -0.1576  # F
      25   1  38.5688624559  34.9843900414   2.1145807779       1  0.3275  # C
      26   2  38.0601459336  34.2080026962   2.1838327823       1 -0.1576  # F
      27   2  37.5632069901  35.6672911251   1.3750108469       1 -0.1576  # F
      28   1  39.3226835059  34.8785879507   1.8090366418       1  0.3275  # C
      29   2  40.1256109330  33.7077163385   1.8997120457       1 -0.1576  # F
      30   2  39.7012165609  35.7750753490   2.0607634885       1 -0.1576  # F
      31   1  39.5262955269  34.7999480081   0.8296598930       1  0.3275  # C
      32   2  40.3980073207  34.1491463510   0.9253282912       1 -0.1576  # F
      33   2  39.8062099700  35.9160558013   0.8647459581       1 -0.1576  # F
      34   1  38.9140600668  34.4629506710   0.1024349024       1  0.3275  # C
      35   2  38.5693951546  33.5916323647  -0.1641344049       1 -0.1576  # F
      36   2  37.7484445500  35.1887133157   0.5461381903       1 -0.1576  # F
      37   1  39.1005446802  34.9157996162  -1.0775105561       1  0.3275  # C
      38   2  38.1442047242  35.2477281934  -1.4096275579       1 -0.1576  # F
      39   2  39.0278808082  33.5383692887  -0.9871659145       1 -0.1576  # F
      40   1  40.2014569855  35.0920968503  -1.6438384467       1  0.3275  # C
      41   2  40.4702707821  34.8279903119  -2.8508806270       1 -0.1576  # F
      42   2  40.5138420303  34.0561932330  -1.2792122996       1 -0.1576  # F
      43   1  40.7043141034  35.9074458617  -1.0011661702       1  0.2465  # C
      44   2  40.5601758785  36.2027617966  -0.2740741380       1 -0.1336  # F
      45   2  40.8139330871  36.9865233946  -1.6977911277       1 -0.1336  # F
      46   1  41.9576895011  36.1753549954  -0.7299125268       1  0.1317  # C
      47   2  41.7313811390  36.9442966375  -0.2361902587       1 -0.1193  # F
      48   3  41.9582562445  36.8232733421  -1.5925223570       1 -0.3109  # GFOc
      49   1  42.0789917085  38.1761112726  -0.8825164175       1  0.4954  # C
      50   2  41.5390076574  38.3264134374   0.2206695805       1 -0.1280  # F
      51   2  43.1952223669  37.8384271568  -0.3874091190       1 -0.1559  # F
      52   1  42.3159801451  39.0062982902  -1.4746692644       1  0.0465  # C
      53   2  42.9172121308  39.3019667868  -0.6871463875       1 -0.1122  # F
      54   1  41.8394818249  39.9619387716  -1.6363219364       1  0.5842  # C
      55   2  41.5731795686  39.0897728298  -2.4531787118       1 -0.1563  # F
      56   2  40.8929566795  40.8067384156  -1.2121229749       1 -0.1736  # F
      57   2  42.7173794752  40.4540268641  -0.7776255197       1 -0.1844  # F
      58   3  42.1919646662  38.4358835181  -2.8126697599       1 -0.2516  # GFOc
      59   1  43.2243141850  37.6081468355  -3.6160182938       1  0.4557  # C
      60   2  43.7062869415  37.1033082025  -2.8645461795       1 -0.1368  # F
      61   2  42.2107203406  37.5795356838  -4.2513140736       1 -0.1393  # F
      62   1  44.4382867898  37.6762010968  -4.2470998277       1  0.1062  # C
      63   2  45.3034638779  36.9686930504  -3.7732019839       1 -0.1457  # F
      64   2  43.7246414929  38.1009487670  -5.0717472915       1 -0.1482  # F
      65   4  44.7487153700  38.8956974481  -4.7534291154       1  1.1345  # GGS
      66   5  44.2270445121  39.6130842330  -5.6550837928       1 -0.6371  # GOs
      67   5  45.2042567607  38.4889876214  -5.3169609051       1 -0.6371  # GOs
      68   5  45.6475355234  38.8132359318  -3.9032214242       1 -0.6371  # GOs
      69   6  46.2577435114  37.8075756764  -3.4692979179       1  1.0000  # Na
      70   1  42.6363651722  35.4384504038  -0.3131132351       1  0.3275  # C
      71   2  42.2497577360  35.4054158305   0.6928597110       1 -0.1576  # F
      72   2  43.7386326522  35.8645315957  -0.4533070142       1 -0.1576  # F
      73   1  42.8125275058  35.0404136876  -1.2806133055       1  0.3275  # C
      74   2  41.9157669098  34.2089741493  -2.0561859655       1 -0.1576  # F
      75   2  42.9191871371  34.3778469572  -0.9255588214       1 -0.1576  # F
      76   1  43.5837370342  35.8896262009  -1.5941516574       1  0.3275  # C
      77   2  45.0267677673  36.0479785013  -1.7016819939       1 -0.1576  # F
      78   2  42.7325739378  36.7256480543  -1.1154360137       1 -0.1576  # F
      79   1  43.8130474246  35.8297932278  -2.8121051145       1  0.3275  # C
      80   2  43.1306178463  35.0914430816  -3.2081336238       1 -0.1576  # F
      81   2  43.7635446908  36.2200500022  -4.1055806532       1 -0.1576  # F
      82   1  44.8136308713  35.9905395660  -2.5835225697       1  0.3275  # C
      83   2  45.6488699840  35.3991255163  -2.8466777774       1 -0.1576  # F
      84   2  44.5997832464  37.0475699135  -3.2147827544       1 -0.1576  # F
      85   1  45.9527742335  36.4130542806  -2.6140460486       1  0.3275  # C
      86   2  46.1466920877  35.9944685909  -3.7647102844       1 -0.1576  # F
      87   2  45.4876070042  37.9480754287  -3.1192145622       1 -0.1576  # F
      88   1  46.0702279930  36.4532573477  -1.2540363992       1  0.3275  # C
      89   2  46.5200762254  37.2219437781  -1.4220476962       1 -0.1576  # F
      90   2  46.9006966335  35.6354461106  -1.1092554010       1 -0.1576  # F
      91   1  45.1231454322  36.8653794981  -0.8015462482       1  0.3275  # C
      92   2  44.8284796135  37.6707295697  -1.0250342593       1 -0.1576  # F
      93   2  44.8282357990  37.0417884492   0.1544997097       1 -0.1576  # F
      94   1  44.4794329328  36.1162043620  -1.0938577058       1  0.3275  # C
      95   2  44.1044879374  37.3082935851  -1.5028959950       1 -0.1576  # F
      96   2  43.7591108982  35.2695004905  -1.2074022510       1 -0.1576  # F
      97   1  44.4979392006  35.0714491257  -1.7754716759       1  0.3275  # C
      98   2  43.7634882562  34.3800668655  -1.2136962451       1 -0.1576  # F
      99   2  44.7520335261  34.8259626764  -2.8692521250       1 -0.1576  # F
     100   1  45.6286860983  34.6086418221  -1.2785738813       1  0.3275  # C
     101   2  46.6470037734  33.8346176739  -1.6919474949       1 -0.1576  # F
     102   2  45.3399265026  34.0189378495  -0.5686971027       1 -0.1576  # F
     103   1  46.3156572709  35.1337234208  -1.8231950751       1  0.3275  # C
     104   2  46.5034433104  35.7338647262  -2.8059260067       1 -0.1576  # F
     105   2  46.7011551257  35.0441061431  -2.5149555412       1 -0.1576  # F
     106   1  46.3819721295  34.9180725797  -0.5284834466       1  0.3275  # C
     107   2  47.0931743839  34.2144663607  -0.3241252362       1 -0.1576  # F
     108   2  46.4646669514  35.9410913887  -0.1333153954       1 -0.1576  # F
     109   1  45.9940286987  34.6627545727  -0.1497026514       1  0.3275  # C
     110   2  46.0460873300  33.7039986268  -0.5211669752       1 -0.1576  # F
     111   2  45.0178504334  35.2805337735  -0.5872594890       1 -0.1576  # F
     112   1  45.8091698382  34.6690846798   1.0241334156       1  0.2465  # C
     113   2  46.2603079164  35.2382079606   1.5628336103       1 -0.1336  # F
     114   2  45.0315829123  35.1093769769   1.3229481356       1 -0.1336  # F
     115   1  45.7375006052  33.8177189364   1.3565593704       1  0.1317  # C
     116   2  46.2271613096  33.5724998929   2.3294379770       1 -0.1193  # F
     117   3  44.9186409043  33.9831118785   1.8138082666       1 -0.3109  # GFOc
     118   1  44.1456748609  32.9777537097   2.1100966224       1  0.4954  # C
     119   2  44.0879583953  32.8467455093   3.2730006915       1 -0.1280  # F
     120   2  42.8701058538  33.1956798735   1.7519679022       1 -0.1559  # F
     121   1  44.9109446813  31.9471065454   1.7790433965       1  0.0465  # C
     122   2  46.0088717869  31.5003461922   0.8680724084       1 -0.1122  # F
     123   1  44.4881203294  30.6321798554   1.8007577483       1  0.5842  # C
     124   2  45.6261631967  30.0855146106   1.1854927509       1 -0.1563  # F
     125   2  44.0272084740  30.7518103763   2.7994983005       1 -0.1736  # F
     126   2  44.6981558004  29.7768196737   2.2070949074       1 -0.1844  # F
     127   3  45.3999263942  31.0684886601   2.3514468353       1 -0.2516  # GFOc
     128   1  46.1165775815  30.0695739964   2.6908593910       1  0.4557  # C
     129   2  47.0849845219  29.6016246318   2.8457331801       1 -0.1368  # F
     130   2  46.8113665398  30.4443716419   1.6756922876       1 -0.1393  # F
     131   1  45.8182589042  28.9066489253   3.3826557193       1  0.1062  # C
     132   2  45.5132461984  28.5555460879   4.7378261675       1 -0.1457  # F
     133   2  46.5037697993  29.5212553386   3.5534947569       1 -0.1482  # F
     134   4  45.2090837096  28.0708952629   3.1905324329       1  1.1345  # GGS
     135   5  44.5110345841  28.2469686853   2.1414085910       1 -0.6371  # GOs
     136   5  44.3136404601  27.0791748371   3.8882656004       1 -0.6371  # GOs
     137   5  45.5824807092  27.2810323833   4.0041908944       1 -0.6371  # GOs
     138   6  44.8421124344  26.9741191028   4.6431083281       1  1.0000  # Na
     139   1  45.5917908553  32.8726645634   0.8571023138       1  0.3275  # C
     140   2  45.7270194651  32.2891040578   1.6897933214       1 -0.1576  # F
     141   2  46.2810561797  32.4740894403   0.1896088384       1 -0.1576  # F
     142   1  44.7257993698  32.5454381410   0.1232125565       1  0.3275  # C
     143   2  45.5597165487  32.3873610319  -0.5343519983       1 -0.1576  # F
     144   2  43.7224718999  32.5894116076  -0.0777563128       1 -0.1576  # F
     145   1  44.1710716499  33.5655219777   0.2937470607       1  0.3275  # C
     146   2  43.4520049617  33.2371815849  -0.4239043074       1 -0.1576  # F
     147   2  43.6435035281  34.1259763772   0.7540222510       1 -0.1576  # F
     148   1  45.0169274031  34.4477465662   0.3185383191       1  0.3275  # C
     149   2  45.4628636914  35.2601435912   0.2863398127       1 -0.1576  # F
     150   2  45.7326959657  33.9384549187   0.4119286988       1 -0.1576  # F
     151   1  44.0061467035  35.2242718717   0.6894491889       1  0.3275  # C
     152   2  43.6218050938  36.3409858970   0.6297430419       1 -0.1576  # F
     153   2  43.2574734646  35.3421591024   0.3726802401       1 -0.1576  # F
     154   1  44.4323631178  35.3865552294   1.6278043478       1  0.3275  # C
     155   2  43.8507804830  36.3065276345   1.6128408967       1 -0.1576  # F
     156   2  44.1774189415  34.3538796549   1.6000467043       1 -0.1576  # F
     157   1  45.3346242430  35.9082809388   1.8199184291       1  0.3275  # C
     158   2  46.4332453808  35.5796310456   1.1665121473       1 -0.1576  # F
     159   2  45.1646600093  37.1004425166   2.0041206867       1 -0.1576  # F
     160   1  45.1840081008  36.3001696501   2.9063605070       1  0.3275  # C
     161   2  45.8699449902  36.8505328117   3.3577306343       1 -0.1576  # F
     162   2  44.4879910617  37.1989768816   2.8488077576       1 -0.1576  # F
     163   1  44.5114566971  35.6245202732   3.3479951747       1  0.3275  # C
     164   2  43.8188875060  35.2295757100   4.5471387749       1 -0.1576  # F
     165   2  44.2714697176  36.4607155570   2.8808509194       1 -0.1576  # F
     166   1  45.2596528579  34.4557086572   3.3484765976       1  0.3275  # C
     167   2  45.6933769251  35.3265514970   4.4854139955       1 -0.1576  # F
     168   2  44.6886010643  33.7183447781   3.5219966743       1 -0.1576  # F
     169   1  46.2263210469  34.1733769769   2.7575353577       1  0.3275  # C
     170   2  45.7770600744  34.3716719894   2.1645205764       1 -0.1576  # F
     171   2  47.2350223672  34.2483392825   2.9336734687       1 -0.1576  # F
     172   1  46.7621820170  33.5749657396   2.1739923787       1  0.3275  # C
     173   2  46.7327087528  32.5482184169   2.5444563306       1 -0.1576  # F
     174   2  46.7408380303  33.1098312648   0.9753279594       1 -0.1576  # F
     175   1  47.7931650376  34.1121091022   1.5616510616       1  0.3275  # C
     176   2  47.7528554224  34.9798382888   1.2917056410       1 -0.1576  # F
     177   2  47.9723634444  33.0113437598   1.1047606898       1 -0.1576  # F
     178   1  48.7469062299  34.3602269592   2.1463055707       1  0.3275  # C
     179   2  48.0975665901  35.3453298653   2.7719698907       1 -0.1576  # F
     180   2  49.6279737505  34.3321716037   1.4132346389       1 -0.1576  # F
     181   1  49.5677214402  33.7620653300   2.8782471209       1  0.2465  # C
     182   2  49.3451392040  34.7603681449   2.9469031225       1 -0.1336  # F
     183   2  50.4214194440  34.2366623968   3.0725091119       1 -0.1336  # F
     184   1  49.7730749822  32.6167432492   3.7987046479       1  0.1317  # C
     185   2  49.7526115441  31.7640521345   2.9747002996       1 -0.1193  # F
     186   3  49.9070310408  33.1856016356   4.3085901152       1 -0.3109  # GFOc
     187   1  50.5083919318  33.0781614844   5.4132544753       1  0.4954  # C
     188   2  49.4770637218  33.3586931679   6.0460110918       1 -0.1280  # F
     189   2  51.3101661337  34.1397766450   5.8136389601       1 -0.1559  # F
     190   1  51.2462236886  32.0531891030   5.1153723522       1  0.0465  # C
     191   2  51.1410064670  30.8078867063   4.6786278504       1 -0.1122  # F
     192   1  52.0046035628  32.4723935359   4.6424835308       1  0.5842  # C
     193   2  51.1310370539  33.2964017003   4.9440098952       1 -0.1563  # F
     194   2  51.4856937944  32.7052007916   3.7181346077       1 -0.1736  # F
     195   2  53.2171107153  32.5651809024   4.2524700534       1 -0.1844  # F
     196   3  52.1269759245  32.4656730990   5.9042126024       1 -0.2516  # GFOc
     197   1  52.1764440367  33.6140014192   5.6189896371       1  0.4557  # C
     198   2  51.3324977075  34.5816574613   5.2267056602       1 -0.1368  # F
     199   2  52.6060739616  33.4868108861   4.8056549978       1 -0.1393  # F
     200   1  52.2538963628  33.9584943028   6.7469044513       1  0.1062  # C
     201   2  51.8797129343  33.5018456147   7.6843578098       1 -0.1457  # F
     202   2  51.9091458500  35.2498565102   6.7392846594       1 -0.1482  # F
     203   4  53.2768788078  33.7306369571   6.9852994499       1  1.1345  # GGS
     204   5  53.1063523924  33.4020575265   7.8638474906       1 -0.6371  # GOs
     205   5  53.7163095696  33.4247317671   5.8303906462       1 -0.6371  # GOs
     206   5  54.1150294769  35.0675646614   7.1633138473       1 -0.6371  # GOs
     207   6  54.7044650018  35.7013865686   7.2401851986       1  1.0000  # Na
     208   1  48.6904424768  31.5193419449   4.1676035444       1  0.3275  # C
     209   2  49.0925380769  30.5986285021   3.7505638240       1 -0.1576  # F
     210   2  47.3303442627  31.3517058495   3.9494641750       1 -0.1576  # F
     211   1  48.3728000710  31.7895851036   5.1760906700       1  0.3275  # C
     212   2  47.6448550401  32.5707068481   4.9189747420       1 -0.1576  # F
     213   2  47.5043843635  31.2775758655   5.5760716008       1 -0.1576  # F
     214   1  49.5637320757  31.9138881466   5.4057685489       1  0.3275  # C
     215   2  50.0335818347  32.6576748920   6.2503029330       1 -0.1576  # F
     216   2  50.3485460503  32.4205708571   4.9371935695       1 -0.1576  # F
     217   1  50.0203291296  30.9835202006   5.7804380012       1  0.3275  # C
     218   2  50.7685942953  30.9327084091   6.4316964543       1 -0.1576  # F
     219   2  50.4149577860  30.0735398529   5.0646608211       1 -0.1576  # F
     220   1  49.9385119447  30.7082995747   6.5573793809       1  0.3275  # C
     221   2  49.1435350119  30.8733211206   7.2925327459       1 -0.1576  # F
     222   2  49.8975821128  29.7257811539   6.2588480732       1 -0.1576  # F
     223   1  50.8345925199  31.1506083305   7.0704114085       1  0.3275  # C
     224   2  51.7368999551  31.5063269133   6.1867733066       1 -0.1576  # F
     225   2  50.1454071926  31.8965126891   7.2652378879       1 -0.1576  # F
     226   1  51.5955130762  30.6557869441   8.0595486172       1  0.3275  # C
     227   2  52.1639199023  31.2835996278   8.4472805295       1 -0.1576  # F
     228   2  52.3507403532  30.4305235982   7.6395321398       1 -0.1576  # F
     229   1  50.4844934673  29.4677725041   8.4758265290       1  0.3275  # C
     230   2  50.6979942881  28.7972124636   8.9194849619       1 -0.1576  # F
     231   2  50.9707193780  29.9395240655   9.3356541365       1 -0.1576  # F
     232   1  49.2737915573  28.6932121672   8.0183408951       1  0.3275  # C
     233   2  48.1925840690  28.6663979504   8.5914110808       1 -0.1576  # F
     234   2  49.1109504720  27.9294767773   8.3801506642       1 -0.1576  # F
     235   1  49.2145843597  28.6972820523   7.1895363191       1  0.3275  # C
     236   2  50.0700640768  28.0583736927   6.7507917679       1 -0.1576  # F
     237   2  49.0773370467  27.1974550904   7.6438655562       1 -0.1576  # F
     238   1  47.9591039238  29.2354651506   7.1733214557       1  0.3275  # C
     239   2  47.6833578587  30.1557432049   6.3731375802       1 -0.1576  # F
     240   2  47.9752881569  28.5208325878   6.1176225892       1 -0.1576  # F
     241   1  47.1986918055  29.3199832223   8.1288005118       1  0.3275  # C
     242   2  46.7502185197  28.4390355120   7.9773178457       1 -0.1576  # F
     243   2  46.5322764701  29.8218778953   7.6537996262       1 -0.1576  # F
     244   1  46.9097669937  29.7879392408   9.1996940891       1  0.3275  # C
     245   2  46.9661640560  30.8300582195   8.3719676733       1 -0.1576  # F
     246   2  47.7966050866  30.0386792018   9.7920850012       1 -0.1576  # F
     247   1  46.0713123915  29.7424818152   9.7706658122       1  0.3275  # C
     248   2  46.9629271723  29.9428931019  11.0107426758       1 -0.1576  # F
     249   2  45.7871635142  30.8643748721   9.6213964091       1 -0.1576  # F
     250   1  45.7535333886  28.8328810982   9.8638915604       1  0.2465  # C
     251   2  46.7694980531  28.4151028684   9.7392481746       1 -0.1336  # F
     252   2  45.3761540719  28.1804704662  10.8231618882       1 -0.1336  # F
     253   1  45.2201083105  28.7447764631   9.1575139424       1  0.1317  # C
     254   2  44.7883614736  29.7577765945   8.6084581763       1 -0.1193  # F
     255   3  45.9296884550  28.2709615884   7.9074698760       1 -0.3109  # GFOc
     256   1  45.7101673178  28.6820279706   7.0159658241       1  0.4954  # C
     257   2  46.1651212313  29.1077579281   8.2268145333       1 -0.1280  # F
     258   2  44.4319588603  29.1227060179   6.9342673317       1 -0.1559  # F
     259   1  46.6448906616  27.8766545660   6.5452195736       1  0.0465  # C
     260   2  46.2738671010  27.2779905899   7.4352763961       1 -0.1122  # F
     261   1  46.4745052254  28.6735357654   6.1399332118       1  0.5842  # C
     262   2  46.2663406009  28.6157934652   5.1720959754       1 -0.1563  # F
     263   2  45.5092031308  28.2352594872   6.4527547830       1 -0.1736  # F
     264   2  46.9811591330  29.7889122619   6.2628732040       1 -0.1844  # F
     265   3  47.4783396857  27.3276018181   5.6912252178       1 -0.2516  # GFOc
     266   1  47.8274702614  26.3117908006   5.3288182756       1  0.4557  # C
     267   2  48.8890020032  27.0688815859   5.2236421072       1 -0.1368  # F
     268   2  48.2281855543  25.7403894759   5.8091500451       1 -0.1393  # F
     269   1  47.1293757086  25.7616724539   4.8365463387       1  0.1062  # C
     270   2  46.1061018220  25.8813122791   4.4876099710       1 -0.1457  # F
     271   2  48.0157108465  25.7547915100   4.4829672369       1 -0.1482  # F
     272   4  47.5612198498  24.9116982859   4.7325218663       1  1.1345  # GGS
     273   5  48.2407183613  25.2182247991   5.2484971787       1 -0.6371  # GOs
     274   5  47.2432602684  24.2816864055   5.3500018824       1 -0.6371  # GOs
     275   5  47.8548552907  24.9221808535   3.9216455708       1 -0.6371  # GOs
     276   6  48.3267302004  24.7857844089   2.9081034424       1  1.0000  # Na
     277   1  44.5912992055  28.5758260407  10.1752425447       1  0.3275  # C
     278   2  44.1612967674  27.6960564519  10.1666021628       1 -0.1576  # F
     279   2  44.9010590229  28.6081274450  11.1704806228       1 -0.1576  # F
     280   1  43.8961168760  29.6155883626  10.1708530858       1  0.3275  # C
     281   2  42.7896273526  29.6276787507   9.7348718190       1 -0.1576  # F
     282   2  43.5570302412  29.0646436171  11.0141654985       1 -0.1576  # F
     283   1  44.2980701124  30.7362621186   9.9562793008       1  0.3275  # C
     284   2  44.6898772573  30.7726552891  10.6248979439       1 -0.1576  # F
     285   2  43.5916037008  31.4026344085   9.9912189642       1 -0.1576  # F
     286   1  43.9701993906  30.8014040741   9.0885605142       1  0.3275  # C
     287   2  43.7599862921  30.0031813975   8.3894727938       1 -0.1576  # F
     288   2  44.9522151270  31.1664502776   8.8274191827       1 -0.1576  # F
     289   1  43.3479925657  31.5087214201   8.9610409730       1  0.3275  # C
     290   2  44.5791130150  32.5066335829   8.4804622851       1 -0.1576  # F
     291   2  42.8158830977  31.7626615147   8.2108369110       1 -0.1576  # F
     292   1  43.1003025718  32.0690588512   9.7800496142       1  0.3275  # C
     293   2  42.3710444016  31.6398857871   9.2558714489       1 -0.1576  # F
     294   2  43.5233595810  31.8133230444  10.5972134920       1 -0.1576  # F
     295   1  43.4133737981  33.1926538878   9.8828329057       1  0.3275  # C
     296   2  42.9754889051  33.9224616123   9.8343637134       1 -0.1576  # F
     297   2  43.2632368613  32.8949443613  10.9175669379       1 -0.1576  # F
     298   1  44.2575455399  33.2730509352   9.9149512518       1  0.3275  # C
     299   2  44.2054228043  32.5887063189  10.0453202807       1 -0.1576  # F
     300   2  44.7368755959  33.4941774802  10.7392087925       1 -0.1576  # F
     301   1  44.2201244947  33.6154837203   8.9765655359       1  0.3275  # C
     302   2  43.2931077339  33.5921960361   8.7440825899       1 -0.1576  # F
     303   2  44.3238052595  34.5648158510   8.5636500047       1 -0.1576  # F
     304   1  45.4703808703  33.5537328213   8.9720662487       1  0.3275  # C
     305   2  46.0458093554  32.8303722127   9.8496999743       1 -0.1576  # F
     306   2  45.4989513182  32.5528257263   9.3695950410       1 -0.1576  # F
     307   1  46.3698340806  34.3456656279   8.4867228366       1  0.3275  # C
     308   2  46.5316945557  35.3940603191   8.3039936910       1 -0.1576  # F
     309   2  47.2648944408  34.7282780454   8.8104923618       1 -0.1576  # F
     310   1  46.2081259378  33.5704144126   7.7084856383       1  0.3275  # C
     311   2  46.3411364911  32.8770929332   8.7405967592       1 -0.1576  # F
     312   2  47.1623824306  34.1223931204   7.6733980028       1 -0.1576  # F
     313   1  45.0485049412  34.1817296331   6.9005738368       1  0.3275  # C
     314   2  45.2959411805  35.1199843101   6.8672670578       1 -0.1576  # F
     315   2  44.7897299832  34.5662596903   7.6884692046       1 -0.1576  # F
     316   1  44.7769460848  33.9193658164   5.9564166648       1  0.3275  # C
     317   2  44.0367055428  33.5605077227   5.0940012923       1 -0.1576  # F
     318   2  44.2862102564  34.4238779445   6.6005339154       1 -0.1576  # F
     319   1  45.1832657384  34.3551978649   5.1650922740       1  0.2465  # C
     320   2  44.9500247973  34.7743028560   4.3992152162       1 -0.1336  # F
     321   2  45.3630490297  35.0847991769   6.0224490186       1 -0.1336  # F
     322   1  46.1005653750  33.3941797864   4.3568794191       1  0.1317  # C
     323   2  46.8775887500  34.4724649707   4.3303801800       1 -0.1193  # F
     324   3  45.1377176842  32.7730765647   3.4280998595       1 -0.3109  # GFOc
     325   1  44.8034355310  32.2609428684   4.0863706447       1  0.4954  # C
     326   2  43.7304703678  32.4470106618   4.0292261389       1 -0.1280  # F
     327   2  44.8169045201  31.1977674992   3.8285844529       1 -0.1559  # F
     328   1  45.3746584701  32.5050267645   5.2613263668       1  0.0465  # C
     329   2  44.4143704182  32.7951049288   6.2020094031       1 -0.1122  # F
     330   1  45.4907044984  33.6318795665   4.9748103568       1  0.5842  # C
     331   2  45.0908053627  33.8408625328   4.3688934267       1 -0.1563  # F
     332   2  46.1339815075  34.5467303283   5.4287097091       1 -0.1736  # F
     333   2  44.7394760031  33.3089204509   5.3939862484       1 -0.1844  # F
     334   3  45.7139269569  31.7279046458   5.9229319111       1 -0.2516  # GFOc
     335   1  45.3125364913  30.9814239109   5.2844428183       1  0.4557  # C
     336   2  44.0985528076  31.7766069885   4.8360213289       1 -0.1368  # F
     337   2  46.3560912242  30.7383925550   4.5058779348       1 -0.1393  # F
     338   1  45.1936422215  29.9429790019   5.0515252251       1  0.1062  # C
     339   2  44.9754271543  28.8448587931   5.2922147906       1 -0.1457  # F
     340   2  46.2744218345  29.7740613992   4.6428661674       1 -0.1482  # F
     341   4  44.3206962559  29.8463286420   4.4145013196       1  1.1345  # GGS
     342   5  43.4930721215  30.9922106314   4.6297204686       1 -0.6371  # GOs
     343   5  44.1793952517  30.2381343295   3.6154365895       1 -0.6371  # GOs
     344   5  43.9732541613  28.5003493727   4.3957552650       1 -0.6371  # GOs
     345   6  43.5882628895  27.3915775531   4.5980561020       1  1.0000  # Na
     346   1  46.2658504304  32.4484795378   4.6949498073       1  0.3275  # C
     347   2  47.1133608306  31.9433390870   4.5326054939       1 -0.1576  # F
     348   2  45.3650581810  31.6678636870   4.5469447582       1 -0.1576  # F
     349   1  46.4281478585  32.9482093710   5.4821867779       1  0.3275  # C
     350   2  47.2428863532  33.2264847741   4.7679844674       1 -0.1576  # F
     351   2  47.0806851746  32.3120623421   6.2585154678       1 -0.1576  # F
     352   1  45.8384873117  33.2045780358   6.4527479764       1  0.3275  # C
     353   2  46.6207930941  33.1430848086   7.2429016944       1 -0.1576  # F
     354   2  45.9644595130  34.0067640010   6.2334815508       1 -0.1576  # F
     355   1  45.1257712901  32.6752313000   6.8733304261       1  0.3275  # C
     356   2  45.5992968909  31.3362892816   7.3196969394       1 -0.1576  # F
     357   2  45.2127751970  32.4702831895   6.0359302433       1 -0.1576  # F
     358   1  44.5252223927  33.2833669226   7.6727327174       1  0.3275  # C
     359   2  45.3416964313  33.2747309728   8.1844955130       1 -0.1576  # F
     360   2  43.5081681075  33.4085743241   6.6110871597       1 -0.1576  # F
     361   1  43.7878699931  33.3069769402   7.9558713613       1  0.3275  # C
     362   2  42.7125833031  32.5203753552   7.6147363088       1 -0.1576  # F
     363   2  43.6125749357  32.8878380584   9.0603063353       1 -0.1576  # F
     364   1  43.6711780872  34.7837480039   7.7926513608       1  0.3275  # C
     365   2  43.2392138532  34.8432443561   6.8446798118       1 -0.1576  # F
     366   2  44.2779285220  35.4219843234   8.2386415162       1 -0.1576  # F
     367   1  42.9022579517  35.3789883197   7.6269367758       1  0.3275  # C
     368   2  43.3565115708  35.5958892608   6.5383226759       1 -0.1576  # F
     369   2  41.7384986809  35.4604045131   7.4348624482       1 -0.1576  # F
     370   1  43.0283289831  36.1795177618   8.1131809111       1  0.3275  # C
     371   2  43.3480334150  35.9230063033   9.2213111839       1 -0.1576  # F