LAMMPS output created by EMC v9.4.4, build Aug  6 2019 08:14:42

        7994  atoms
        6937  bonds
       10500  angles
       13587  dihedrals

           8  atom types
           7  bond types
          12  angle types
          14  dihedral types

             0    43.07791893  xlo xhi
             0    43.07791893  ylo yhi
             0    43.07791893  zlo zhi

Masses

       1   20.00000  # C
       2   20.00000  # F
       3   20.00000  # Oc
       4   20.00000  # S
       5   20.00000  # Os
       6   20.00000  # Na
       7   20.00000  # H
       8   20.00000  # O

Atoms

       1   1  26.5607340251  35.5612593957  22.1440284084       1  0.3275  # C
       2   2  26.0225645270  35.7641111635  23.0137542865       1 -0.1576  # F
       3   2  27.2267542671  35.9770715976  21.6415281345       1 -0.1576  # F
       4   1  26.7759416675  34.8087949059  21.9423480240       1  0.3275  # C
       5   2  25.7909371284  34.9456538913  22.0225904024       1 -0.1576  # F
       6   2  26.8804631698  34.0748941120  23.0195132560       1 -0.1576  # F
       7   1  27.4572455281  34.5610678059  21.2698985235       1  0.3275  # C
       8   2  28.5674493581  34.4866991607  21.3229283099       1 -0.1576  # F
       9   2  27.3342480381  35.3021110462  20.3509450990       1 -0.1576  # F
      10   1  27.3777268345  33.6397522495  21.6678708732       1  0.3275  # C
      11   2  26.2591894793  33.6731035385  21.3848640661       1 -0.1576  # F
      12   2  27.9543422097  33.4841200161  21.0316335447       1 -0.1576  # F
      13   1  27.7807934396  33.5752654438  22.7917104525       1  0.3275  # C
      14   2  27.3049631402  33.4589232373  23.7819797193       1 -0.1576  # F
      15   2  27.5892002173  32.5427726947  22.8033567817       1 -0.1576  # F
      16   1  28.4705393109  34.4721365145  22.7344039900       1  0.3275  # C
      17   2  28.6078450372  35.2071490393  21.7804148614       1 -0.1576  # F
      18   2  29.6312840264  35.2263104817  23.0534499192       1 -0.1576  # F
      19   1  27.8123150345  35.6544253403  23.3244881243       1  0.3275  # C
      20   2  28.0203521709  36.2084653340  24.4708873397       1 -0.1576  # F
      21   2  28.3582336295  36.5722947351  22.4604749880       1 -0.1576  # F
      22   1  26.8100933795  35.6727443853  23.6678065853       1  0.3275  # C
      23   2  25.6118765433  35.1374778626  23.5995707373       1 -0.1576  # F
      24   2  27.2580687608  34.9476417732  23.5973981219       1 -0.1576  # F
      25   1  26.1739439156  36.2908261130  23.9491028252       1  0.3275  # C
      26   2  25.0393859080  36.3659167509  23.6707136717       1 -0.1576  # F
      27   2  26.7409841198  37.6325412417  23.9540348146       1 -0.1576  # F
      28   1  25.5550548058  35.5330063721  24.6824537529       1  0.3275  # C
      29   2  25.0833633580  35.9492873605  25.8060329441       1 -0.1576  # F
      30   2  24.7552721038  35.1291840279  24.1149030352       1 -0.1576  # F
      31   1  26.6301205539  34.9495422322  25.2655964747       1  0.3275  # C
      32   2  27.0232207137  34.1362202754  26.4161233551       1 -0.1576  # F
      33   2  26.3622777870  33.8935437169  25.4153422495       1 -0.1576  # F
      34   1  27.4722631789  36.0132759537  25.8122431745       1  0.3275  # C
      35   2  26.6605159369  36.9996839829  25.3400468709       1 -0.1576  # F
      36   2  28.0416482398  35.4658740284  25.8502169924       1 -0.1576  # F
      37   1  27.4438214012  37.1222348382  26.4447973539       1  0.3275  # C
      38   2  27.8036513292  37.7382135339  27.6414124426       1 -0.1576  # F
      39   2  27.8998752794  37.7882738776  25.7121815627       1 -0.1576  # F
      40   1  27.0277776551  37.9203223800  26.5458074584       1  0.3275  # C
      41   2  27.8828933707  38.5500795873  25.9951995033       1 -0.1576  # F
      42   2  26.2771490040  37.2578750532  26.4071882627       1 -0.1576  # F
      43   1  26.8636042700  38.1200120930  27.6940613901       1  0.2465  # C
      44   2  26.2642233738  37.2752797516  27.7821848431       1 -0.1336  # F
      45   2  26.1480739534  38.1257330828  28.3704219627       1 -0.1336  # F
      46   1  28.0311547486  38.8378565118  27.8668599608       1  0.1317  # C
      47   2  27.1692084944  39.7267794246  27.6299711574       1 -0.1193  # F
      48   3  28.2775511126  38.4750174411  27.1460820016       1 -0.3109  # Oc
      49   1  28.5959977309  37.4425490643  27.0535443415       1  0.4954  # C
      50   2  29.7856492010  37.8908477254  27.6440694803       1 -0.1280  # F
      51   2  28.7222683040  36.7542258755  26.4383312316       1 -0.1559  # F
      52   1  28.3730370754  36.9569514535  27.5967225670       1  0.0465  # C
      53   2  28.9738693559  37.5033395124  28.1109552434       1 -0.1122  # F
      54   1  27.3663056476  36.0574432769  27.3601169166       1  0.5842  # C
      55   2  27.6414990605  34.6985607888  27.2146979458       1 -0.1563  # F
      56   2  27.0178519195  35.9773779669  26.5359557131       1 -0.1736  # F
      57   2  26.5248209624  36.1527547815  28.2983315551       1 -0.1844  # F
      58   3  27.6280866845  36.7498325088  28.2931353514       1 -0.2516  # Oc
      59   1  26.7842655175  36.8951174952  28.7461560820       1  0.4557  # C
      60   2  27.5033165287  37.7771464311  29.3498646471       1 -0.1368  # F
      61   2  25.7000238122  36.8789578911  28.4655489847       1 -0.1393  # F
      62   1  26.3530634430  36.1101882510  29.1067474989       1  0.1062  # C
      63   2  27.1774217531  36.2506274223  28.7936479624       1 -0.1457  # F
      64   2  26.2726074768  35.0828036946  28.3680428446       1 -0.1482  # F
      65   4  25.7850890984  35.9409508095  30.1139750127       1  1.1345  # S
      66   5  26.1262730434  35.1262355068  30.1012985778       1 -0.6371  # Os
      67   5  26.2618745803  37.0244834557  30.1421286904       1 -0.6371  # Os
      68   5  25.2775764124  35.5654511344  30.6563622875       1 -0.6371  # Os
      69   6  24.8926726127  35.0451221219  30.2095404392       1  1.0000  # Na
      70   1  28.9181790046  38.8255591505  28.9540001290       1  0.3275  # C
      71   2  29.4632062242  39.4450907458  30.1514834842       1 -0.1576  # F
      72   2  28.7680562819  39.3165468598  29.8693255283       1 -0.1576  # F
      73   1  30.0432699678  37.6179689753  28.8382171034       1  0.3275  # C
      74   2  30.4532938522  37.7155858079  30.2270529867       1 -0.1576  # F
      75   2  30.6692924413  38.2231376705  27.9947440655       1 -0.1576  # F
      76   1  29.4986803646  36.9650168523  28.7428794755       1  0.3275  # C
      77   2  28.7908329286  37.5658155481  29.4298332984       1 -0.1576  # F
      78   2  29.9115531190  37.2828063794  27.6171310248       1 -0.1576  # F
      79   1  29.9950892811  35.6018587755  29.0414000843       1  0.3275  # C
      80   2  30.1917760988  34.4304712381  29.0033838931       1 -0.1576  # F
      81   2  29.3829688940  35.0610164385  29.9952491757       1 -0.1576  # F
      82   1  30.6893514868  36.2747574939  28.2629853916       1  0.3275  # C
      83   2  31.2068200559  35.3812106304  27.6640788710       1 -0.1576  # F
      84   2  31.2710727139  36.9229607261  29.1255609203       1 -0.1576  # F
      85   1  30.6659094810  36.5203814534  26.9886950612       1  0.3275  # C
      86   2  30.9097524097  36.4491737148  25.8436754750       1 -0.1576  # F
      87   2  30.7460111119  37.4835976733  27.2214733832       1 -0.1576  # F
      88   1  30.2801021995  35.7307809793  26.6042300303       1  0.3275  # C
      89   2  29.6262941302  35.4751363164  27.1665959579       1 -0.1576  # F
      90   2  30.8638444995  35.1845986831  26.4773951351       1 -0.1576  # F
      91   1  29.8969759264  35.8620870837  25.9088002176       1  0.3275  # C
      92   2  30.3495143143  36.3060381431  24.7656988838       1 -0.1576  # F
      93   2  28.6707414973  35.4555392403  26.3240035799       1 -0.1576  # F
      94   1  29.3475267548  36.5615512098  25.2306999305       1  0.3275  # C
      95   2  28.2074556474  37.1237837900  25.0060329102       1 -0.1576  # F
      96   2  29.1657096593  37.7464046563  25.4140863525       1 -0.1576  # F
      97   1  29.4229979605  35.9096243727  24.3681713168       1  0.3275  # C
      98   2  28.8723147311  36.5987714007  23.8177497102       1 -0.1576  # F
      99   2  28.6983312173  35.2068174389  24.4028828230       1 -0.1576  # F
     100   1  30.5374533383  35.5320391423  24.7102156263       1  0.3275  # C
     101   2  31.5847297519  36.0550178424  24.2757435446       1 -0.1576  # F
     102   2  30.6934222969  34.8528159079  25.6087671659       1 -0.1576  # F
     103   1  29.6368563360  34.8523672824  24.6718477759       1  0.3275  # C
     104   2  29.1918766049  34.3818148364  23.9429566224       1 -0.1576  # F
     105   2  30.2927621626  34.1382051080  24.0042872884       1 -0.1576  # F
     106   1  28.5024366525  35.2587702829  25.3514981246       1  0.3275  # C
     107   2  28.3255400676  34.6813971737  26.3535554606       1 -0.1576  # F
     108   2  27.3513550175  34.4151743109  24.9881792786       1 -0.1576  # F
     109   1  28.6736957882  36.1482347764  25.7578458648       1  0.3275  # C
     110   2  27.8881915512  36.6882740212  25.9365053162       1 -0.1576  # F
     111   2  29.1985062864  37.0177587172  25.5558132058       1 -0.1576  # F
     112   1  28.8940626203  35.5581646009  26.9859632544       1  0.2465  # C
     113   2  29.2471561719  35.0175802291  26.2270092181       1 -0.1336  # F
     114   2  28.0536550763  35.3506858784  27.5926703793       1 -0.1336  # F
     115   1  29.7994926327  35.1131747744  27.7328469527       1  0.1317  # C
     116   2  29.5418328368  34.2266184784  28.6270594122       1 -0.1193  # F
     117   3  29.6170724697  36.0277770338  28.3522396792       1 -0.3109  # Oc
     118   1  29.6334652666  35.8932701459  30.0007323334       1  0.4954  # C
     119   2  29.6180973385  34.7921489789  30.7750360544       1 -0.1280  # F
     120   2  28.7213520080  35.6494621031  30.3844276531       1 -0.1559  # F
     121   1  30.1901321445  36.5338163717  30.5161092092       1  0.0465  # C
     122   2  29.5901109175  36.5873134949  31.3850329649       1 -0.1122  # F
     123   1  30.3325027227  36.2783082923  31.6035787241       1  0.5842  # C
     124   2  30.5309932350  36.7964389899  32.4660879457       1 -0.1563  # F
     125   2  29.3611868502  36.1617377090  32.3823257272       1 -0.1736  # F
     126   2  30.1950160097  35.3403792233  31.6820922005       1 -0.1844  # F
     127   3  31.0918516971  36.7178494322  30.3974781586       1 -0.2516  # Oc
     128   1  32.1994793916  36.5760233651  30.0697769293       1  0.4557  # C
     129   2  32.3124980714  36.9396216974  30.9663043909       1 -0.1368  # F
     130   2  33.0453402535  36.6136980100  29.1404052924       1 -0.1393  # F
     131   1  31.6973212241  36.2432398668  29.2323324497       1  0.1062  # C
     132   2  31.9693547045  35.0872487689  28.9496798087       1 -0.1457  # F
     133   2  31.2347730963  35.9479356340  30.2740403670       1 -0.1482  # F
     134   4  31.6713869908  36.9589233802  28.4281099029       1  1.1345  # S
     135   5  30.9881293481  37.5141503614  28.4726955918       1 -0.6371  # Os
     136   5  30.8864362225  36.8570172867  27.8763124893       1 -0.6371  # Os
     137   5  32.6323105149  37.4155353641  28.0679036222       1 -0.6371  # Os
     138   6  32.5780638193  36.6325761279  26.8563907573       1  1.0000  # Na
     139   1  30.4482161513  34.6416403704  26.9229579699       1  0.3275  # C
     140   2  30.8972337006  33.8777253274  27.5193185478       1 -0.1576  # F
     141   2  30.2059075987  34.1274816254  26.4206120514       1 -0.1576  # F
     142   1  30.6559678453  35.7377227291  27.3289330062       1  0.3275  # C
     143   2  30.4015563950  35.0950401099  28.2149056166       1 -0.1576  # F
     144   2  29.2532326019  36.1973963828  27.4922949829       1 -0.1576  # F
     145   1  31.3763790841  36.0966968819  26.7024552398       1  0.3275  # C
     146   2  31.5591658842  35.2649595153  26.0513850392       1 -0.1576  # F
     147   2  31.8909313522  36.0251233159  27.0739486204       1 -0.1576  # F
     148   1  31.4142000346  37.1018296905  25.9247344157       1  0.3275  # C
     149   2  31.7074247017  37.8090563606  26.5036432725       1 -0.1576  # F
     150   2  31.6425856056  37.2557753387  24.9159321018       1 -0.1576  # F
     151   1  30.5726516872  37.8346493467  25.0686933267       1  0.3275  # C
     152   2  30.0261113271  37.3540751500  24.3509246279       1 -0.1576  # F
     153   2  30.5860146935  37.9248374832  26.2482392124       1 -0.1576  # F
     154   1  31.0293429321  38.1275898943  24.0889178977       1  0.3275  # C
     155   2  30.4364024071  38.7587775732  23.9419226492       1 -0.1576  # F
     156   2  30.9297840976  37.5780216161  23.2522441065       1 -0.1576  # F
     157   1  31.5635569098  39.2239524276  24.2444545987       1  0.3275  # C
     158   2  32.1612436226  38.5182726037  24.6964329757       1 -0.1576  # F
     159   2  30.6874510122  39.8051347816  25.5153330630       1 -0.1576  # F
     160   1  32.1172627404  40.0140419065  23.9467728640       1  0.3275  # C
     161   2  31.4742644750  40.5795895411  24.5385897950       1 -0.1576  # F
     162   2  33.2885272389  40.8910703540  23.5252807683       1 -0.1576  # F
     163   1  32.0967346670  40.3720289906  22.9889782594       1  0.3275  # C
     164   2  32.4332965927  40.1541835278  22.1060321252       1 -0.1576  # F
     165   2  30.8227669000  40.7784246650  23.1103378470       1 -0.1576  # F
     166   1  31.6067127213  41.1791540229  21.7192046226       1  0.3275  # C
     167   2  30.8457150827  41.5638107103  22.6744876019       1 -0.1576  # F
     168   2  32.4388751783  41.2645657347  20.6712291093       1 -0.1576  # F
     169   1  30.9430946330  41.0641877868  20.6774895546       1  0.3275  # C
     170   2  30.8162438391  40.1958647881  20.9711501389       1 -0.1576  # F
     171   2  30.7867124434  42.2420401911  20.7895235008       1 -0.1576  # F
     172   1  31.2759968368  40.9966723222  19.5790392675       1  0.3275  # C
     173   2  30.3209180122  41.3645345694  19.7353898303       1 -0.1576  # F
     174   2  31.6200061597  40.1470066584  20.3509642478       1 -0.1576  # F
     175   1  31.4857191921  40.7478778480  18.5443059958       1  0.3275  # C
     176   2  32.1564772486  39.6338669509  18.7245395542       1 -0.1576  # F
     177   2  30.4002381996  39.9904890257  18.4583999038       1 -0.1576  # F
     178   1  31.9922676786  42.1714314237  18.3904634670       1  0.3275  # C
     179   2  32.9356843340  41.8204135524  17.5467896712       1 -0.1576  # F
     180   2  32.1900064761  42.6708692826  19.3296507997       1 -0.1576  # F
     181   1  31.3807212544  42.7940286011  17.8104763721       1  0.2465  # C
     182   2  31.4540341269   0.4893051283  17.9730273136       1 -0.1336  # F
     183   2  31.3190509791  41.8993803827  17.4859762621       1 -0.1336  # F
     184   1  30.4068773291  42.9898312787  17.2556085928       1  0.1317  # C
     185   2  30.0727112732   0.4936253449  18.4745850391       1 -0.1193  # F
     186   3  30.2668830694  42.1058369282  17.8537507743       1 -0.3109  # Oc
     187   1  29.7005727573  41.5775596236  18.0587751330       1  0.4954  # C
     188   2  28.9700508288  42.0102178767  18.4891139010       1 -0.1280  # F
     189   2  30.5323354196  41.5219897049  18.5767104922       1 -0.1559  # F
     190   1  29.3740673216  40.4766054590  18.3718526289       1  0.0465  # C
     191   2  29.5723371774  40.1789400290  17.2456188926       1 -0.1122  # F
     192   1  28.3646342561  40.1809907645  18.5103539514       1  0.5842  # C
     193   2  28.1586474057  40.3965406590  17.3517946919       1 -0.1563  # F
     194   2  28.5667555191  39.4025002010  19.0318436217       1 -0.1736  # F
     195   2  27.5656599730  40.7101179605  19.1917088617       1 -0.1844  # F
     196   3  29.9705145579  40.3943357964  19.6748204437       1 -0.2516  # Oc
     197   1  30.7513975413  39.1295367608  20.3289734457       1  0.4557  # C
     198   2  32.2043308536  39.8735133325  20.5063748999       1 -0.1368  # F
     199   2  31.0354523761  38.3149939091  21.1405768944       1 -0.1393  # F
     200   1  29.9035612051  38.4122524801  20.6801054967       1  0.1062  # C
     201   2  29.7259601200  38.0201028779  21.8501237113       1 -0.1457  # F
     202   2  29.6460682344  37.4663180628  20.2052743150       1 -0.1482  # F
     203   4  28.8288554768  38.7506319842  19.7983316609       1  1.1345  # S
     204   5  28.2591883069  37.9655144616  20.2456809196       1 -0.6371  # Os
     205   5  29.3336215969  39.7998866977  19.2252211360       1 -0.6371  # Os
     206   5  28.9716682244  38.8130404822  18.5782277432       1 -0.6371  # Os
     207   6  29.5491036502  38.6300764837  17.8702500177       1  1.0000  # Na
     208   1  30.0912235024  42.2387206555  15.9849746237       1  0.3275  # C
     209   2  30.8716680066   0.0711048159  15.9897348725       1 -0.1576  # F
     210   2  29.2183834099  42.2247617786  15.4500042505       1 -0.1576  # F
     211   1  29.9858528133  41.4715349231  15.3601855199       1  0.3275  # C
     212   2  29.8342945060  40.8634908268  16.0898287982       1 -0.1576  # F
     213   2  30.7875414642  41.0207040966  14.8711463680       1 -0.1576  # F
     214   1  28.8625835799  40.2768286429  15.9755821764       1  0.3275  # C
     215   2  27.8559967738  40.6490884761  16.2796008455       1 -0.1576  # F
     216   2  28.4212888743  39.4462282328  15.5660953962       1 -0.1576  # F
     217   1  29.4201677022  39.6664047972  16.1194192149       1  0.3275  # C
     218   2  30.4164187381  39.8418859091  16.3323821875       1 -0.1576  # F
     219   2  30.2588108728  39.9817242763  15.5350899532       1 -0.1576  # F
     220   1  29.3041471050  38.3991975634  16.0087598407       1  0.3275  # C
     221   2  29.8906638712  38.0241782957  15.3998028340       1 -0.1576  # F
     222   2  29.3873694582  38.0205523005  16.8778966577       1 -0.1576  # F
     223   1  28.2981106317  38.2982655948  15.4174312074       1  0.3275  # C
     224   2  27.4972752444  38.4664697020  16.1254433435       1 -0.1576  # F
     225   2  27.6762699404  38.8176284033  14.8773337197       1 -0.1576  # F
     226   1  28.7241038436  37.8514626274  14.4542624245       1  0.3275  # C
     227   2  30.3751078360  37.7245818688  14.3423689165       1 -0.1576  # F
     228   2  29.4590746556  38.8707198583  13.9704780985       1 -0.1576  # F
     229   1  27.8890757008  37.3354415598  14.4819739057       1  0.3275  # C
     230   2  27.8333715238  36.8121428891  15.2585993573       1 -0.1576  # F
     231   2  27.4140608593  37.0894034890  13.7813940589       1 -0.1576  # F
     232   1  27.5464477479  38.1612601222  14.5479233558       1  0.3275  # C
     233   2  28.5440716888  38.8756369219  14.5303733099       1 -0.1576  # F
     234   2  27.8564684660  38.6032153427  13.8172014128       1 -0.1576  # F
     235   1  26.7937293666  38.5879355660  15.2433363672       1  0.3275  # C
     236   2  26.5757264876  39.9498573385  15.2030803851       1 -0.1576  # F
     237   2  26.6772666683  37.9782024074  16.1228807013       1 -0.1576  # F
     238   1  25.4289749506  38.5240089120  14.6882581796       1  0.3275  # C
     239   2  24.9123685592  39.3450145854  15.0658830224       1 -0.1576  # F
     240   2  25.0059427764  37.9390342513  15.3833630677       1 -0.1576  # F
     241   1  26.0597466708  38.4458896421  13.8279079031       1  0.3275  # C
     242   2  25.7808517710  37.6089628559  13.8113685452       1 -0.1576  # F
     243   2  26.6676286046  37.5624495130  13.2419139165       1 -0.1576  # F
     244   1  26.9670289715  39.7118433267  13.9995861923       1  0.3275  # C
     245   2  26.4795985319  40.8895314760  14.6554917650       1 -0.1576  # F
     246   2  26.8837461966  40.5664595442  13.6770606523       1 -0.1576  # F
     247   1  28.0389380965  39.4311202657  14.0238897777       1  0.3275  # C
     248   2  28.8735332258  39.6527058253  14.6168488883       1 -0.1576  # F
     249   2  29.0612231066  39.4876522396  13.4011750763       1 -0.1576  # F
     250   1  28.3903018579  38.6990236221  13.5683648689       1  0.2465  # C
     251   2  27.8058706032  37.8872250013  13.0361277557       1 -0.1336  # F
     252   2  29.2629152842  38.1441322523  14.1086982468       1 -0.1336  # F
     253   1  29.2511319462  38.3400011214  12.4433795519       1  0.1317  # C
     254   2  30.1197062686  38.4078659282  12.2152239497       1 -0.1193  # F
     255   3  29.0707990486  39.1171847143  11.9896817936       1 -0.3109  # Oc
     256   1  29.4339292187  40.4185236144  12.1583947807       1  0.4954  # C
     257   2  29.4124240561  40.4318876251  13.1376884071       1 -0.1280  # F
     258   2  28.6559435782  41.3900886832  11.9650272200       1 -0.1559  # F
     259   1  29.8774031889  40.1619446549  11.2395092272       1  0.0465  # C
     260   2  29.9343625369  39.2524211999  11.4579831014       1 -0.1122  # F
     261   1  29.5717314753  40.1658894623  10.5008228504       1  0.5842  # C
     262   2  29.7845611475  40.3884246283   9.3624923226       1 -0.1563  # F
     263   2  29.5780379762  39.3301619230  10.2602747954       1 -0.1736  # F
     264   2  28.5583317842  40.0819323658  10.9763049108       1 -0.1844  # F
     265   3  30.8816790385  40.4194424492  11.0582000012       1 -0.2516  # Oc
     266   1  31.8135698017  39.9777260024  10.6508261994       1  0.4557  # C
     267   2  31.8138247152  40.7744995972  10.0179086584       1 -0.1368  # F
     268   2  32.2640530851  39.4211528128  11.4884791617       1 -0.1393  # F
     269   1  32.4160742960  38.8746611987  10.2998478995       1  0.1062  # C
     270   2  31.4586790374  38.5863119464  10.8818441169       1 -0.1457  # F
     271   2  33.2372086900  39.1840988233  10.6239646565       1 -0.1482  # F
     272   4  32.5356019870  39.0209608605   9.5285862106       1  1.1345  # S
     273   5  33.1573116987  38.6376221572   8.7016204530       1 -0.6371  # Os
     274   5  33.2948302184  39.5128575520   9.7966215467       1 -0.6371  # Os
     275   5  31.0883204562  39.5608132188   8.6250964717       1 -0.6371  # Os
     276   6  30.3628992805  39.4395805754   8.0377502167       1  1.0000  # Na
     277   1  28.9861967028  37.4016834353  12.7039377135       1  0.3275  # C
     278   2  29.7100960037  36.8688122331  12.3318693846       1 -0.1576  # F
     279   2  28.6543171253  37.2317639577  13.5756456921       1 -0.1576  # F
     280   1  28.2252070726  37.0011455865  11.9541419338       1  0.3275  # C
     281   2  27.5716216591  36.4691885133  11.8447303499       1 -0.1576  # F
     282   2  29.1254435704  36.5903589184  11.5971975675       1 -0.1576  # F
     283   1  27.6075091908  37.8776859012  10.9494997743       1  0.3275  # C
     284   2  27.4369243341  38.5350620455  10.0985595624       1 -0.1576  # F
     285   2  28.4813997028  38.3458003646  10.9137208986       1 -0.1576  # F
     286   1  26.6069656125  37.6392459368  10.7202195789       1  0.3275  # C
     287   2  26.6649280922  36.7976692461  10.3006677298       1 -0.1576  # F
     288   2  26.3849991967  38.0126633758   9.8526024501       1 -0.1576  # F
     289   1  26.0664587631  38.3050106902  11.3514745236       1  0.3275  # C
     290   2  26.0142989033  37.1494376692  11.1164900098       1 -0.1576  # F
     291   2  25.8386610748  39.1629490051  11.2657196774       1 -0.1576  # F
     292   1  26.5196259557  38.2742607992  12.1900482418       1  0.3275  # C
     293   2  25.5527541057  38.0021137111  12.6368997113       1 -0.1576  # F
     294   2  26.7820323738  39.4012721955  12.3002682389       1 -0.1576  # F
     295   1  27.1873850018  37.5924123738  11.7978056099       1  0.3275  # C
     296   2  26.8057758133  36.7965890496  11.7324802548       1 -0.1576  # F
     297   2  28.3794763499  37.4152088085  10.9517936130       1 -0.1576  # F
     298   1  27.9430029568  37.9716042447  12.1904273473       1  0.3275  # C
     299   2  27.7090580791  38.9838644488  11.6033721281       1 -0.1576  # F
     300   2  28.8502565973  37.9806827656  11.2048942441       1 -0.1576  # F
     301   1  28.2416569881  37.2484471077  13.1533993518       1  0.3275  # C
     302   2  27.9263810014  36.2490940126  12.3825452383       1 -0.1576  # F
     303   2  29.0352409450  37.9299042924  13.3894490210       1 -0.1576  # F
     304   1  27.2219932293  36.8232640033  13.2790226030       1  0.3275  # C
     305   2  27.0202633069  36.2357215951  12.4617212363       1 -0.1576  # F
     306   2  27.5584858256  35.7418384071  14.1850157686       1 -0.1576  # F
     307   1  26.7154362854  37.3036955927  14.0130433001       1  0.3275  # C
     308   2  26.6078654550  38.5295017108  14.3095922650       1 -0.1576  # F
     309   2  25.6752069882  36.7704488558  13.7369148749       1 -0.1576  # F
     310   1  26.0009671246  37.0344986980  15.3660961932       1  0.3275  # C
     311   2  25.7622013427  38.3392207038  15.7675528182       1 -0.1576  # F
     312   2  26.6625095117  36.4466278665  16.0437399452       1 -0.1576  # F
     313   1  25.1792234529  37.0946295917  15.4121691874       1  0.3275  # C
     314   2  24.4776798249  36.9910754364  16.5200810480       1 -0.1576  # F
     315   2  24.8846980016  38.2847637263  16.1801634340       1 -0.1576  # F
     316   1  24.8160637187  36.8980216724  14.3524075708       1  0.3275  # C
     317   2  24.2908169467  38.0745841770  13.6994890336       1 -0.1576  # F
     318   2  25.5668044069  36.2893372580  14.4424745455       1 -0.1576  # F
     319   1  23.8659982021  36.0451467241  14.0841149054       1  0.2465  # C
     320   2  23.4514787682  35.6600912331  14.7621817110       1 -0.1336  # F
     321   2  23.2945841519  36.6200469079  14.4647606612       1 -0.1336  # F
     322   1  24.8507328079  35.1593665023  13.8782302181       1  0.1317  # C
     323   2  24.2984452033  35.0878926931  13.1408954035       1 -0.1193  # F
     324   3  26.0663533549  35.6624252754  13.9798393517       1 -0.3109  # Oc
     325   1  27.0650154043  35.3762593668  13.4150468180       1  0.4954  # C
     326   2  28.0643364582  35.3106351305  13.6910570091       1 -0.1280  # F
     327   2  27.3655314435  34.2333720128  13.6450139630       1 -0.1559  # F
     328   1  27.1594175038  34.9870689429  11.9917129645       1  0.0465  # C
     329   2  27.6548694335  33.8328882728  11.6806897423       1 -0.1122  # F
     330   1  26.1845146610  35.1676093354  12.3617965783       1  0.5842  # C
     331   2  25.7335382517  34.4156776643  12.4038381806       1 -0.1563  # F
     332   2  26.2467032149  35.0041396021  11.1179510181       1 -0.1736  # F
     333   2  25.2805398899  35.5370267036  12.4447338097       1 -0.1844  # F
     334   3  28.0600031999  35.8982851721  11.2855694129       1 -0.2516  # Oc
     335   1  28.7714396431  35.9782689533  12.4557698905       1  0.4557  # C
     336   2  28.5949870157  34.9445318667  12.5434945643       1 -0.1368  # F
     337   2  28.3254753431  36.1915075141  13.2276335208       1 -0.1393  # F
     338   1  29.6985859339  36.2030420396  12.5731572256       1  0.1062  # C
     339   2  29.8118367939  36.8653995769  13.3490273120       1 -0.1457  # F
     340   2  30.6176692407  36.2979603569  11.5912488108       1 -0.1482  # F
     341   4  29.6492997828  35.5203606055  13.3371056761       1  1.1345  # S
     342   5  30.3114315387  34.8903223824  13.3852118606       1 -0.6371  # Os
     343   5  29.5412755315  36.0472907069  14.2242586147       1 -0.6371  # Os
     344   5  30.1995119449  34.9991964270  12.4787876791       1 -0.6371  # Os
     345   6  31.2816670685  34.7059399367  12.6738131785       1  1.0000  # Na
     346   1  25.2513541998  34.2063499627  13.9141904203       1  0.3275  # C
     347   2  24.8184718801  33.9198042576  14.9563958393       1 -0.1576  # F
     348   2  24.6891118129  33.8496857885  12.6989067701       1 -0.1576  # F
     349   1  26.0440150790  33.9544890874  14.4647620486       1  0.3275  # C
     350   2  26.5465819919  33.5965565236  15.5019375796       1 -0.1576  # F
     351   2  25.1740044377  34.5510919664  14.5758341889       1 -0.1576  # F
     352   1  26.8550752484  33.4616263782  14.1394882231       1  0.3275  # C
     353   2  27.3866895764  34.0397679712  14.4394947652       1 -0.1576  # F
     354   2  26.1614601741  32.7958944334  13.1616305087       1 -0.1576  # F
     355   1  27.6071291619  32.7244396080  13.6252080311       1  0.3275  # C
     356   2  28.1543172506  33.3721903082  12.9705827922       1 -0.1576  # F
     357   2  27.4619270002  32.3224436556  12.7791595861       1 -0.1576  # F
     358   1  28.4643614297  32.4596358541  14.1239737074       1  0.3275  # C
     359   2  28.5713157462  31.6239306882  15.0945115834       1 -0.1576  # F
     360   2  28.7744637603  32.0095348740  13.2099240408       1 -0.1576  # F
     361   1  28.9605061323  33.2055924225  14.5182510373       1  0.3275  # C
     362   2  28.5610774636  33.6165931814  13.7314350363       1 -0.1576  # F
     363   2  28.3203170223  33.2087283253  15.1109305842       1 -0.1576  # F
     364   1  30.1907079679  33.3670326170  15.1172889543       1  0.3275  # C
     365   2  30.1058132243  32.8654765677  14.5445405419       1 -0.1576  # F
     366   2  30.5791272545  34.4174051569  14.6296231084       1 -0.1576  # F
     367   1  30.5376030085  33.5570994417  15.8882284665       1  0.3275  # C
     368   2  30.7813795204  34.3297188568  15.7995083294       1 -0.1576  # F
     369   2  30.0457973896  33.2998906905  16.7380957967       1 -0.1576  # F
     370   1  31.7945166672  33.3489746888  16.1298594453       1  0.3275  # C
     371   2  31.9229760891  34.6041855347  16.2873534886       1 -0.1576  # F