LAMMPS output created by EMC v9.4.4, build Aug  6 2019 08:14:42

        7994  atoms
6867 bonds
10430 angles
13377 dihedrals

           8  atom types
           7  bond types
          12  angle types
          14  dihedral types

             0    43.07791893  xlo xhi
             0    43.07791893  ylo yhi
             0    43.07791893  zlo zhi

Masses

       1   12.01115  # c
       2   18.99840  # f
       3   15.99940  # oc
       4   32.06400  # s
       5   15.99940  # o=       
	   6    22.990 	 # na+
       7    1.00797  # hw
       8    15.99940  # o*

Atoms

1 1 1 0.3275 12.5587533032 19.4558582312 32.8624789519 # C
2 1 2 -0.1576 13.2933159077 18.9365542846 31.9368600483 # F
3 1 2 -0.1576 11.5889435179 19.2704065696 32.8057197468 # F
4 1 1 0.3275 12.4587175991 19.6981918061 33.8871169726 # C
5 1 2 -0.1576 13.0766449482 20.7137329771 33.9341207057 # F
6 1 2 -0.1576 13.2652730613 19.2105564410 34.6784273204 # F
7 1 1 0.3275 11.2750019996 20.7629322578 33.3921329982 # C
8 1 2 -0.1576 11.5088257783 20.8794799459 32.2011562726 # F
9 1 2 -0.1576 11.2545680316 21.7497812916 33.8670336123 # F
10 1 1 0.3275 10.3294953153 20.7580219323 34.0028389892 # C
11 1 2 -0.1576 9.6308597036 20.0674190141 33.2185479365 # F
12 1 2 -0.1576 9.9355526134 21.7981575546 34.3114372552 # F
13 1 1 0.3275 10.1507239446 19.7943979051 35.0725226260 # C
14 1 2 -0.1576 9.2864946467 19.6140003064 35.8600088396 # F
15 1 2 -0.1576 11.0002640769 19.2429647890 35.2923863901 # F
16 1 1 0.3275 9.9888971609 20.8660108834 35.9179584671 # C
17 1 2 -0.1576 8.9654573317 21.1674889308 35.8373606640 # F
18 1 2 -0.1576 10.4966775628 20.7795114985 35.2682508495 # F
19 1 1 0.3275 9.5907178468 21.2929502944 36.6330418244 # C
20 1 2 -0.1576 9.6524611189 21.4905524692 37.4337508982 # F
21 1 2 -0.1576 10.1501948972 20.7154305318 36.8193174833 # F
22 1 1 0.3275 9.4207892513 22.0693650063 36.4272428774 # C
23 1 2 -0.1576 9.6125712184 22.2041444270 35.2884407468 # F
24 1 2 -0.1576 10.3355679390 22.9833849606 36.3447885092 # F
25 1 1 0.3275 8.2403470727 21.8662600413 37.0011556603 # C
26 1 2 -0.1576 8.3622446127 21.1213192706 37.9151838385 # F
27 1 2 -0.1576 7.2447193482 21.4771730167 36.9908378954 # F
28 1 1 0.3275 7.6414428064 22.6686202193 36.5812905102 # C
29 1 2 -0.1576 8.1263264695 22.9505294973 35.2714417930 # F
30 1 2 -0.1576 7.7559972207 23.4615187650 36.7619070488 # F
31 1 1 0.3275 6.5001499295 22.6825476190 37.2195456978 # C
32 1 2 -0.1576 6.2093783067 23.3594449967 38.1635927867 # F
33 1 2 -0.1576 6.4948198467 23.8063383748 36.6700541077 # F
34 1 1 0.3275 6.0013116148 21.9926738364 37.6022828078 # C
35 1 2 -0.1576 6.1877647588 21.0241481324 38.0955100588 # F
36 1 2 -0.1576 5.1752338160 22.7112907914 37.8251330018 # F
37 1 1 0.3275 5.8136841629 21.7874517742 36.6774387833 # C
38 1 2 -0.1576 4.6479298631 21.8110082183 36.7515040683 # F
39 1 2 -0.1576 6.3413222240 20.8983837012 36.3119231891 # F
40 1 1 0.3275 6.3553457394 22.4621689676 35.6592610529 # C
41 1 2 -0.1576 7.4851173493 22.3116131738 35.3108230979 # F
42 1 2 -0.1576 5.7160770079 23.0963422934 35.7495949613 # F
43 1 1 0.2465 5.8247147019 22.7710568496 35.2026807600 # C
44 1 2 -0.1336 6.7760671135 22.7123053016 34.4125238859 # F
45 1 2 -0.1336 5.8326219228 23.6707083869 34.9125779750 # F
46 1 1 0.1317 4.8119270598 22.4905185548 34.8574622911 # C
47 1 2 -0.1193 4.3503625585 23.2689070474 33.6317308000 # F
48 1 3 -0.3109 4.5401091487 21.5607755460 34.2103015639 # Oc
49 1 1 0.4954 3.5156361564 20.9220770966 33.8014764171 # C
50 1 2 -0.1280 4.4569930807 21.0201322129 33.0218493684 # F
51 1 2 -0.1559 2.7311134184 21.1147944512 33.0883064890 # F
52 1 1 0.0465 2.9869490132 19.9135273734 34.8407292764 # C
53 1 2 -0.1122 3.1408468854 20.6006043060 35.8167312188 # F
54 1 1 0.5842 2.3101355749 19.6021378604 35.7028196281 # C
55 1 2 -0.1563 1.0472587675 19.5577157207 35.5496874636 # F
56 1 2 -0.1736 1.5994389100 20.7848473333 36.1998588509 # F
57 1 2 -0.1844 3.0089091318 19.2446421807 36.4736927979 # F
58 1 3 -0.2516 3.9430580929 19.3074799094 34.3171645055 # Oc
59 1 1 0.4557 4.7877059254 19.6440436719 34.2274954324 # C
60 1 2 -0.1368 5.4383205064 20.0651511833 34.5373897429 # F
61 1 2 -0.1393 5.5627791155 19.5623229625 33.3203458011 # F
62 1 1 0.1062 4.2950139409 19.3842498293 34.9802938199 # C
63 1 2 -0.1457 3.6548238491 18.7812538990 35.8124260555 # F
64 1 2 -0.1482 4.3728880208 20.4449813012 34.9410391703 # F
65 1 4 1.1345 5.0875217645 18.6798523951 35.1892043951 # S
66 1 5 -0.6371 5.2984951715 18.3056708045 34.4024971528 # Os
67 1 5 -0.6371 4.7780345630 17.5523253476 35.1612734346 # Os
68 1 5 -0.6371 5.2445063089 18.8308483712 36.2294267692 # Os
69 1 6 1.0000 5.0879931540 19.2686803003 37.6337966495 # Na
70 1 1 0.3275 4.0129318923 21.8122597827 35.1750831263 # C
71 1 2 -0.1576 2.8623190759 22.3397705331 35.2729791043 # F
72 1 2 -0.1576 3.0282084279 21.4013474869 35.5485229984 # F
73 1 1 0.3275 5.1578529832 21.2748955026 35.7924609962 # C
74 1 2 -0.1576 5.8791422075 20.2684466403 36.5728992942 # F
75 1 2 -0.1576 4.3960847338 20.9657500688 36.4176405475 # F
76 1 1 0.3275 5.7168118370 20.8350506905 35.0512122806 # C
77 1 2 -0.1576 6.9866044992 20.9389844983 35.6482947904 # F
78 1 2 -0.1576 5.2320345025 19.9556977838 35.4078951984 # F
79 1 1 0.3275 6.3652785372 21.4103679989 34.1270800396 # C
80 1 2 -0.1576 5.8896710931 22.6415611723 33.3792020852 # F
81 1 2 -0.1576 6.4696248345 20.3642563549 34.9731627121 # F
82 1 1 0.3275 6.1135590071 20.8214039451 33.7718498714 # C
83 1 2 -0.1576 5.8061315950 20.1940033499 34.0620307595 # F
84 1 2 -0.1576 5.6949499663 21.6433187895 33.3147848976 # F
85 1 1 0.3275 6.1636125578 20.3324727892 32.4876112535 # C
86 1 2 -0.1576 6.1218552455 19.3818407186 32.3400331764 # F
87 1 2 -0.1576 4.9983529376 20.8365228507 31.9547506180 # F
88 1 1 0.3275 7.1604016256 20.7316134329 31.8377081259 # C
89 1 2 -0.1576 7.7613869855 20.8789658147 32.2449973069 # F
90 1 2 -0.1576 6.9405056057 21.2896351474 31.1563655601 # F
91 1 1 0.3275 7.4378144858 19.6333843722 31.6539839021 # C
92 1 2 -0.1576 6.9178968676 18.6303485062 32.6774973242 # F
93 1 2 -0.1576 8.3473636545 20.0428736474 32.2825621112 # F
94 1 1 0.3275 8.2136807892 18.8673961204 30.9593091690 # C
95 1 2 -0.1576 8.7898946986 18.4386965449 31.9785792764 # F
96 1 2 -0.1576 8.9677877739 18.9725926756 30.1783863774 # F
97 1 1 0.3275 7.9886423733 17.7263339647 30.9234230063 # C
98 1 2 -0.1576 8.4935244840 16.7596376136 31.4886997491 # F
99 1 2 -0.1576 7.2830960691 17.9641539593 30.4800055554 # F
100 1 1 0.3275 8.0248879641 16.7520596861 30.6777696824 # C
101 1 2 -0.1576 7.1698564335 16.4750391649 31.6883403851 # F
102 1 2 -0.1576 7.9969769557 17.3353287005 29.6168658710 # F
103 1 1 0.3275 8.7870747232 17.2100984781 31.0604583461 # C
104 1 2 -0.1576 9.2616340089 17.0099082548 29.9126638633 # F
105 1 2 -0.1576 8.3811547776 16.5686316229 32.4542334904 # F
106 1 1 0.3275 9.1909246308 17.7819342961 31.6810337544 # C
107 1 2 -0.1576 9.8293424884 17.3030418531 32.0895943624 # F
108 1 2 -0.1576 8.0605612229 17.7945498831 32.2585322649 # F
109 1 1 0.3275 9.5985203534 18.8578331688 32.5208283126 # C
110 1 2 -0.1576 10.4333837889 19.0732169490 31.6155999176 # F
111 1 2 -0.1576 8.4599000239 19.2555160558 32.9780829103 # F
112 1 1 0.2465 10.3687387229 18.6110119470 33.5049566842 # C
113 1 2 -0.1336 11.2156817784 19.3710923031 33.7164162507 # F
114 1 2 -0.1336 10.0242561016 19.4912249105 33.8757430479 # F
115 1 1 0.1317 10.0054889796 18.0655765742 33.6265699044 # C
116 1 2 -0.1193 9.0278686906 17.6170686924 32.6062149224 # F
117 1 3 -0.3109 9.3383531241 18.7720862848 33.2675788593 # Oc
118 1 1 0.4954 8.5029590796 19.4628857950 33.6281750736 # C
119 1 2 -0.1280 8.8503896655 19.8385177282 34.5318057651 # F
120 1 2 -0.1559 7.5710831248 18.2669758865 34.0057888191 # F
121 1 1 0.0465 8.0774236388 20.2958047606 33.1422613953 # C
122 1 2 -0.1122 7.7123183086 20.1565529057 34.2297707226 # F
123 1 1 0.5842 9.0317709857 20.5178629361 32.2820574740 # C
124 1 2 -0.1563 8.9568760405 20.6956587714 33.1224822636 # F
125 1 2 -0.1736 9.1701634877 21.4797473828 31.6128511277 # F
126 1 2 -0.1844 9.5709458477 19.3541382143 31.5289887934 # F
127 1 3 -0.2516 7.6566377226 21.2143218238 33.1427625999 # Oc
128 1 1 0.4557 7.4785983472 21.7413741747 32.0716817539 # C
129 1 2 -0.1368 8.3424152205 22.1598783029 32.3197631829 # F
130 1 2 -0.1393 6.6346549713 21.7524246625 31.8018672903 # F
131 1 1 0.1062 7.9049588522 21.0872564893 31.4874768397 # C
132 1 2 -0.1457 8.8310265817 21.8853957520 31.1514191602 # F
133 1 2 -0.1482 7.9830488319 20.1784849295 31.5486981602 # F
134 1 4 1.1345 7.3218284379 20.4906450536 30.5906967330 # S
135 1 5 -0.6371 7.1554606798 21.3797586923 30.1111251424 # Os
136 1 5 -0.6371 7.9480242876 19.6592906484 29.5616647834 # Os
137 1 5 -0.6371 5.8875684808 19.8566552573 30.4542365703 # Os
138 1 6 1.0000 5.3662262786 19.1187499835 30.1392554382 # Na
139 1 1 0.3275 10.1600171161 17.3595696461 34.4342719858 # C
140 1 2 -0.1576 9.1945588308 17.6756084996 34.7668038833 # F
141 1 2 -0.1576 10.7115741012 17.2572550360 33.5713713410 # F
142 1 1 0.3275 10.4118473713 16.6291011430 35.4186978148 # C
143 1 2 -0.1576 9.6946523374 16.2343593828 35.2799490959 # F
144 1 2 -0.1576 10.6388123724 17.8944159915 35.5500877946 # F
145 1 1 0.3275 11.3427790791 16.7746451470 35.7477649408 # C
146 1 2 -0.1576 12.1664804592 16.1215570509 35.1901320936 # F
147 1 2 -0.1576 11.9064430304 16.6180870726 36.5171729517 # F
148 1 1 0.3275 11.6096244766 17.9471753788 35.2830528568 # C
149 1 2 -0.1576 11.4273479523 18.4258015757 34.6740783155 # F
150 1 2 -0.1576 11.9457353100 17.2239255403 34.4199709148 # F
151 1 1 0.3275 12.2261836240 18.7166375621 35.7542798229 # C
152 1 2 -0.1576 11.1996917248 18.7164998637 36.3335908925 # F
153 1 2 -0.1576 12.7784767607 19.7669553153 35.3414716797 # F
154 1 1 0.3275 13.0220302690 18.3873356611 35.8694428741 # C
155 1 2 -0.1576 13.3543272136 18.3628252443 36.8061325192 # F
156 1 2 -0.1576 13.2081404090 19.5784842665 36.0537342457 # F
157 1 1 0.3275 13.4467252911 17.5062260072 35.0746817895 # C
158 1 2 -0.1576 14.3081902132 17.2905049687 34.8454927057 # F
159 1 2 -0.1576 13.3637275155 18.0466218223 34.1151134200 # F
160 1 1 0.3275 13.3763288202 16.4779772379 35.3605415276 # C
161 1 2 -0.1576 12.3021427257 16.8301407855 35.5820612267 # F
162 1 2 -0.1576 13.7361908159 16.5145324895 34.4901887891 # F
163 1 1 0.3275 14.2633056733 16.2531858290 36.1455888566 # C
164 1 2 -0.1576 13.9562794453 17.3627506363 36.0188265024 # F
165 1 2 -0.1576 14.3106711579 16.0489616374 37.4319114153 # F
166 1 1 0.3275 15.2862110702 15.4315939447 35.6209928172 # C
167 1 2 -0.1576 16.2483482811 16.4403892878 35.7104250244 # F
168 1 2 -0.1576 16.3608267327 15.9613596921 34.6033593636 # F
169 1 1 0.3275 15.7814305270 14.1950988961 35.8540142265 # C
170 1 2 -0.1576 16.5753194862 13.8647899332 36.7118522593 # F
171 1 2 -0.1576 15.4308292045 13.5940908947 36.7017869588 # F
172 1 1 0.3275 16.5890732218 14.0443648211 34.5987642655 # C
173 1 2 -0.1576 16.3794135455 13.1866598649 34.2229863538 # F
174 1 2 -0.1576 17.2304223467 13.1914735650 35.1643352118 # F
175 1 1 0.3275 16.7864860244 14.7226771362 34.3270857205 # C
176 1 2 -0.1576 16.0401702082 15.3906616070 34.9106148344 # F
177 1 2 -0.1576 18.0101550365 14.4116621425 35.4640411805 # F
178 1 1 0.3275 17.3446997237 14.7400796969 33.1840083412 # C
179 1 2 -0.1576 17.7193704927 13.8294723595 32.7727715816 # F
180 1 2 -0.1576 17.2815216642 15.4342748021 32.5285644459 # F
181 1 1 0.2465 18.2126959632 15.4622305442 33.0800697949 # C
182 1 2 -0.1336 18.8564223166 15.9807162512 32.4652275695 # F
183 1 2 -0.1336 17.6323110528 16.4254975482 33.5103222216 # F
184 1 1 0.1317 18.6919936933 14.8907972763 33.7995461640 # C
185 1 2 -0.1193 19.0764936616 13.8528743663 33.7088416818 # F
186 1 3 -0.3109 18.8252502613 15.1966051653 34.8954191400 # Oc
187 1 1 0.4954 19.5812452396 15.2911830075 35.6762765120 # C
188 1 2 -0.1280 20.0010539167 14.0791774717 35.2848317569 # F
189 1 2 -0.1559 19.7901367875 14.6133125561 36.4940914787 # F
190 1 1 0.0465 19.9926287477 15.8804160502 35.0403439308 # C
191 1 2 -0.1122 20.6914810426 15.8883772033 35.0774282353 # F
192 1 1 0.5842 19.6998430215 15.2263601847 34.4005092878 # C
193 1 2 -0.1563 20.4944702125 14.4989772833 34.5864843640 # F
194 1 2 -0.1736 18.9787464623 14.3556812320 34.4747225283 # F
195 1 2 -0.1844 19.8927369953 15.3895407415 33.3709220187 # F
196 1 3 -0.2516 19.9691658891 17.2075821430 35.2991636377 # Oc
197 1 1 0.4557 20.5409170058 17.8540350529 35.7003959915 # C
198 1 2 -0.1368 20.7396514860 18.6339306404 35.9058609436 # F
199 1 2 -0.1393 20.6367235359 18.2893464390 34.6159434446 # F
200 1 1 0.1062 21.4514735983 16.8845491080 36.5435195183 # C
201 1 2 -0.1457 20.8434865549 16.1409831205 36.1941308557 # F
202 1 2 -0.1482 22.3878090369 17.6308448539 36.7236100047 # F
203 1 4 1.1345 22.1223194407 16.2130021992 35.8787576451 # S
204 1 5 -0.6371 22.5027415574 15.4387048553 34.9610592450 # Os
205 1 5 -0.6371 22.3029461567 15.6732845428 36.7968929429 # Os
206 1 5 -0.6371 23.1501975538 16.9646963231 35.4222861107 # Os
207 1 6 1.0000 23.4851687365 17.7464612815 34.7913323012 # Na
208 1 1 0.3275 19.3165357138 15.8481906102 33.7093356495 # C
209 1 2 -0.1576 18.7152974050 16.5267314651 34.1145578246 # F
210 1 2 -0.1576 20.4078001372 15.7773963091 33.8484757380 # F
211 1 1 0.3275 19.9320008411 16.8244281552 33.2562857503 # C
212 1 2 -0.1576 20.6444095191 16.3932667597 32.3044746249 # F
213 1 2 -0.1576 20.2479282373 17.5717478183 33.7878225088 # F
214 1 1 0.3275 19.0385820047 17.0684920762 33.0893543825 # C
215 1 2 -0.1576 18.4936126711 17.2716882794 32.5407720970 # F
216 1 2 -0.1576 19.4885326296 17.6853780033 33.9575275869 # F
217 1 1 0.3275 17.6286967295 17.7076583562 32.9229001965 # C
218 1 2 -0.1576 17.0553939070 16.5128064470 32.4491841909 # F
219 1 2 -0.1576 17.5317952680 17.9719155619 34.2856086369 # F
220 1 1 0.3275 17.3798254759 18.7446381908 31.6685024348 # C
221 1 2 -0.1576 18.4490969118 19.3961102453 31.6274929919 # F
222 1 2 -0.1576 16.9869276079 18.7418077551 30.9283768021 # F
223 1 1 0.3275 16.5773933115 18.8907538495 32.2310252682 # C
224 1 2 -0.1576 16.8607036395 18.7251293668 33.0768712314 # F
225 1 2 -0.1576 15.5030682388 17.9539937937 31.4125865519 # F
226 1 1 0.3275 16.2248558376 19.9320995227 32.2479881868 # C
227 1 2 -0.1576 17.3081030931 20.5359101722 31.7033884619 # F
228 1 2 -0.1576 15.8941113347 20.1166303255 31.1017057719 # F
229 1 1 0.3275 15.8682657975 20.5602088256 33.0610563632 # C
230 1 2 -0.1576 14.6031979129 20.7260269141 33.4881221295 # F
231 1 2 -0.1576 16.9573149031 20.8291132689 33.3840697775 # F
232 1 1 0.3275 15.6470823774 20.9245724873 34.2580004221 # C
233 1 2 -0.1576 15.5184026671 21.8110947534 34.6942450290 # F
234 1 2 -0.1576 16.4162762245 20.5181126065 33.6031772500 # F
235 1 1 0.3275 14.9782638519 20.8228368895 34.7732960641 # C
236 1 2 -0.1576 13.9102260156 20.7757491076 34.7570486175 # F
237 1 2 -0.1576 15.4414116166 20.3892195089 35.3150883678 # F
238 1 1 0.3275 14.6426576539 21.6943862360 35.6508272567 # C
239 1 2 -0.1576 14.4449504562 20.5881548835 36.1650632003 # F
240 1 2 -0.1576 14.1986179917 22.6980108165 35.5182784141 # F
241 1 1 0.3275 15.6940348815 21.6040377659 36.0654002745 # C
242 1 2 -0.1576 16.7770977872 21.5200160470 35.8113054699 # F
243 1 2 -0.1576 15.3637733080 21.2940766996 35.3773872204 # F
244 1 1 0.3275 15.8862242027 21.5585656263 36.9648652558 # C
245 1 2 -0.1576 16.8664303589 22.1507909738 37.2625044786 # F
246 1 2 -0.1576 14.7299064068 21.6664913772 37.0835758665 # F
247 1 1 0.3275 16.0951719452 20.6338715007 37.3311550067 # C
248 1 2 -0.1576 16.9204684543 20.4544193335 38.1712211454 # F
249 1 2 -0.1576 15.3221581075 21.1747804102 38.2728422178 # F
250 1 1 0.2465 16.5462917171 19.8888489312 36.7938443131 # C
251 1 2 -0.1336 17.1649044108 19.3998411250 36.4234930852 # F
252 1 2 -0.1336 16.8761617747 20.9001497544 36.8913814934 # F
253 1 1 0.1317 15.6623517573 19.6660703763 36.4966724907 # C
254 1 2 -0.1193 14.8764763443 20.4499678715 36.9731965306 # F
255 1 3 -0.3109 15.1028792069 19.5241675350 35.5295610154 # Oc
256 1 1 0.4954 15.2818992425 18.8259086113 34.8926234309 # C
257 1 2 -0.1280 16.0326134853 18.0827697582 35.0356440719 # F
258 1 2 -0.1559 14.9645105382 18.1047713126 34.9792917979 # F
259 1 1 0.0465 14.9152107834 19.3136619705 33.7383962495 # C
260 1 2 -0.1122 14.9465531248 19.5355778454 32.7863169741 # F
261 1 1 0.5842 14.6521461325 18.1666826146 33.4760540657 # C
262 1 2 -0.1563 15.4170689186 18.8409702209 32.7733605811 # F
263 1 2 -0.1736 15.0798283662 18.0037340027 34.1395479148 # F
264 1 2 -0.1844 14.4976674002 17.9255713138 32.3876287995 # F
265 1 3 -0.2516 13.9266572421 19.9739954585 33.7767354759 # Oc
266 1 1 0.4557 13.3104276232 19.9716875942 32.5809459347 # C
267 1 2 -0.1368 12.5579881182 18.6020438260 32.7015436960 # F
268 1 2 -0.1393 13.9812157934 20.7417854339 32.1711021765 # F
269 1 1 0.1062 12.7973089795 20.6493843660 31.7134151330 # C
270 1 2 -0.1457 13.5625711493 20.8973959728 30.9048249795 # F
271 1 2 -0.1482 12.0196508326 19.9973476751 31.8197147681 # F
272 1 4 1.1345 12.0190455707 20.9468953541 31.2577172427 # S
273 1 5 -0.6371 11.4779302921 20.2199955690 31.0421258568 # Os
274 1 5 -0.6371 12.7594561402 21.6405975118 31.5193123526 # Os
275 1 5 -0.6371 10.9126417665 21.3820584159 31.6781191720 # Os
276 1 6 1.0000 10.0209293364 21.4622751848 32.2785838482 # Na
277 1 1 0.3275 15.6207918053 18.8151465885 36.1204518918 # C
278 1 2 -0.1576 16.8171944946 18.9934716039 35.6804195152 # F
279 1 2 -0.1576 14.8354234397 18.7563964143 36.0876541106 # F
280 1 1 0.3275 15.3749536016 17.8058540029 36.1833975107 # C
281 1 2 -0.1576 14.1703143385 18.1951038353 35.2713051043 # F
282 1 2 -0.1576 16.0953551598 17.9830166419 35.7215942043 # F
283 1 1 0.3275 15.3305627784 16.7997130336 36.7992846463 # C
284 1 2 -0.1576 16.3685499058 16.5341534522 36.8841361853 # F
285 1 2 -0.1576 15.5035515618 17.6867549841 37.2422869566 # F
286 1 1 0.3275 14.6903239152 16.1132201555 36.6936323849 # C
287 1 2 -0.1576 14.8017382605 15.9189138251 35.4722389214 # F
288 1 2 -0.1576 14.8006577095 16.7363956648 37.4203615467 # F
289 1 1 0.3275 14.3463734894 14.9724070355 36.9976120682 # C
290 1 2 -0.1576 13.4146967993 14.6824553264 37.2756372708 # F
291 1 2 -0.1576 14.7323021411 14.0077530642 36.2131416475 # F
292 1 1 0.3275 14.8253945012 15.0045975034 37.8244883763 # C
293 1 2 -0.1576 15.2199514172 16.0732662927 38.0343003472 # F
294 1 2 -0.1576 15.4768434234 14.1536231296 37.9984524379 # F
295 1 1 0.3275 14.1896321734 14.8534786415 38.8403400401 # C
296 1 2 -0.1576 14.4531724171 14.0098405625 38.9506113697 # F
297 1 2 -0.1576 13.2910299877 14.8077407786 38.3224064516 # F
298 1 1 0.3275 14.5248957624 15.7747335367 39.6714631698 # C
299 1 2 -0.1576 14.6635867667 16.2154699557 38.9446134583 # F
300 1 2 -0.1576 15.0475796745 15.3729131783 39.7463455718 # F
301 1 1 0.3275 14.0727896847 16.6579765652 40.4379344602 # C
302 1 2 -0.1576 12.7732275773 16.9633192897 39.7712302562 # F
303 1 2 -0.1576 15.0924910107 16.9860690568 39.7285141477 # F
304 1 1 0.3275 13.9244819723 16.9105783384 41.3412024641 # C
305 1 2 -0.1576 14.8846644199 17.1673058089 41.8208943213 # F
306 1 2 -0.1576 13.4033829185 17.4537084616 40.8336765554 # F
307 1 1 0.3275 13.3303293498 16.6998742627 42.3540354401 # C
308 1 2 -0.1576 13.1859077920 17.6916991703 0.3206167657 # F
309 1 2 -0.1576 12.3529393195 16.9271395147 42.1851049320 # F
310 1 1 0.3275 13.5331852881 15.0820306663 42.9706998770 # C
311 1 2 -0.1576 12.5267646762 15.0874050841 0.2309631254 # F
312 1 2 -0.1576 14.0799347279 15.2332969981 42.7869795847 # F
313 1 1 0.3275 13.2008214589 13.7455775863 42.6306015358 # C
314 1 2 -0.1576 12.1750162839 14.2077789753 42.4155002537 # F
315 1 2 -0.1576 13.5234055803 13.2189195066 41.8828750705 # F
316 1 1 0.3275 14.1646664390 13.2003769101 42.9729657979 # C
317 1 2 -0.1576 15.7267461488 12.3985828757 42.3771423203 # F
318 1 2 -0.1576 13.9499070746 11.9879089665 42.6878771756 # F
319 1 1 0.2465 14.6285210621 13.9087293534 0.5090862030 # C
320 1 2 -0.1336 15.4688693094 13.5114545433 0.7271130419 # F
321 1 2 -0.1336 15.1717627658 14.9256835721 0.4383559150 # F
322 1 1 0.1317 13.4334994510 13.9867957967 1.3420801976 # C
323 1 2 -0.1193 12.8990562898 14.8183570904 1.5847782156 # F
324 1 3 -0.3109 12.9031571010 13.2486701081 0.3989221026 # Oc
325 1 1 0.4954 13.0590229192 12.4035690764 0.1844106912 # C
326 1 2 -0.1280 12.7701875869 12.4834890105 1.0489413361 # F
327 1 2 -0.1559 12.5429870465 12.2827075106 42.4473098338 # F
328 1 1 0.0465 14.6215104038 12.0325892151 0.2520704689 # C
329 1 2 -0.1122 15.4420542891 11.2944007927 0.1891003285 # F
330 1 1 0.5842 15.2045867620 12.7264844519 42.9066515161 # C
331 1 2 -0.1563 16.2720098822 12.7571426000 42.2067365847 # F
332 1 2 -0.1736 15.2158419945 12.7767656103 0.7896252409 # F
333 1 2 -0.1844 16.1323317680 13.8803828212 43.0511727803 # F
334 1 3 -0.2516 14.4921467932 11.9591051215 1.7711500712 # Oc
335 1 1 0.4557 14.2263377546 11.3823437635 2.2176815781 # C
336 1 2 -0.1368 14.6457143951 11.7025735499 3.0025820611 # F
337 1 2 -0.1393 13.1775879391 10.9381697753 2.3317359889 # F
338 1 1 0.1062 14.0647843715 10.6495754797 2.1645901560 # C
339 1 2 -0.1457 13.5329044465 10.4005846969 1.2198153585 # F
340 1 2 -0.1482 15.0194139254 10.5412558022 2.2526014640 # F
341 1 4 1.1345 13.5523925670 10.6421290589 3.0325354361 # S
342 1 5 -0.6371 12.8731834204 10.3654502459 3.6092493672 # Os
343 1 5 -0.6371 14.1940334898 10.0750646367 3.3985142188 # Os
344 1 5 -0.6371 13.4021595592 11.8752498304 2.8365630338 # Os
345 1 6 1.0000 14.0841290705 12.6144494067 3.4542973240 # Na
346 1 1 0.3275 13.8817832199 13.9038524881 2.1755737597 # C
347 1 2 -0.1576 13.6995804323 14.9425030459 2.6788285035 # F
348 1 2 -0.1576 14.3755071846 12.9220804688 2.3666635579 # F
349 1 1 0.3275 13.3913483243 13.3313477118 2.7364459934 # C
350 1 2 -0.1576 14.0056908045 13.5269585949 3.4966426632 # F
351 1 2 -0.1576 13.0423667511 12.8205274230 2.1401074412 # F
352 1 1 0.3275 12.3545843416 13.5886190073 3.2424407500 # C
353 1 2 -0.1576 11.1592263375 13.9902210859 2.5425165478 # F
354 1 2 -0.1576 12.5252687893 13.4426949114 4.4336316295 # F
355 1 1 0.3275 11.9493904775 12.4656071257 2.8626229016 # C
356 1 2 -0.1576 12.7718891002 12.7260186706 3.3933937972 # F
357 1 2 -0.1576 10.9326197154 12.2048680396 3.0290117265 # F
358 1 1 0.3275 12.5362034587 11.6640344798 2.4837114706 # C
359 1 2 -0.1576 12.1431710319 11.7040587816 1.1379808817 # F
360 1 2 -0.1576 13.3317163496 11.1373017645 3.6232967994 # F
361 1 1 0.3275 13.3345299041 11.6005663290 1.4967723618 # C
362 1 2 -0.1576 13.4776707204 12.7870278475 1.3785357673 # F
363 1 2 -0.1576 12.6387308098 10.8390953549 1.4478686861 # F
364 1 1 0.3275 14.3086367954 11.0170674810 0.9911781534 # C
365 1 2 -0.1576 14.2755866750 10.1741304196 1.2500992917 # F
366 1 2 -0.1576 14.8250228654 12.0828963235 1.2317613701 # F
367 1 1 0.3275 14.6648958457 10.8372166468 42.9093225262 # C
368 1 2 -0.1576 15.0859763807 10.6633012373 42.0319065168 # F
369 1 2 -0.1576 15.0880951225 11.7136286927 42.4405174651 # F
370 1 1 0.3275 13.3935321292 10.8199901802 42.7084306849 # C
371 1 2 -0.1576 12.9153241075 11.4582171505 0.7329387726 # F
372 1 2 -0.1576 13.7444143197 11.6431326623 41.7118911035 # F
373 1 1 0.3275 12.6783460032 10.9781091895 42.6793113681 # C
374 1 2 -0.1576 12.4757223242 10.3100953403 0.4040515903 # F
375 1 2 -0.1576 11.9250859003 11.4968592559 42.2354012808 # F
376 1 1 0.3275 11.8004500258 10.5569315331 42.1078131403 # C
377 1 2 -0.1576 11.4100913059 11.1802479980 42.9084192408 # F
378 1 2 -0.1576 11.6858714770 9.6304321163 42.0159158549 # F
379 1 1 0.3275 11.3503067015 11.2193357037 40.9811456150 # C
380 1 2 -0.1576 11.0227872295 10.4161024507 40.6653785979 # F
381 1 2 -0.1576 11.1264014605 12.2107080619 41.2835325728 # F
382 1 1 0.3275 11.7918812321 11.7337836289 40.3398627361 # C
383 1 2 -0.1576 11.7601725437 12.9454132659 40.1274373369 # F
384 1 2 -0.1576 12.6394332739 11.3879309663 39.8169600605 # F
385 1 1 0.3275 10.6640478989 12.0577281325 40.4010219499 # C
386 1 2 -0.1576 10.1479749801 12.5613253815 41.5295629015 # F
387 1 2 -0.1576 9.9403818503 11.9084052769 40.3518191784 # F
388 1 1 0.2465 10.4880067476 12.6674251441 39.6738971323 # C
389 1 2 -0.1336 9.6429443398 12.9627788928 39.2781200026 # F
390 1 2 -0.1336 10.3157001890 13.4334564826 40.3911067093 # F
391 1 1 0.1317 11.4751456782 12.7677486138 39.1008699989 # C
392 1 2 -0.1193 11.7014370217 13.6881792826 38.6524913485 # F
393 1 3 -0.3109 12.9860203430 12.5297229283 39.4437168726 # Oc
394 1 1 0.4954 13.4789817065 12.1790537565 40.5930209173 # C
395 1 2 -0.1280 13.0228304161 12.1152451760 41.2534515636 # F
396 1 2 -0.1559 12.8805040267 10.8560279622 41.1846697513 # F
397 1 1 0.0465 14.4829984553 12.4114492013 40.9344263377 # C
398 1 2 -0.1122 14.2962470887 13.2700731730 40.4325315101 # F
399 1 1 0.5842 15.3135741378 12.6814065493 40.3544637618 # C
400 1 2 -0.1563 15.5304225703 13.0809962112 39.9137117227 # F
401 1 2 -0.1736 16.0233166829 12.1821295588 39.5367846581 # F
402 1 2 -0.1844 15.1636601061 13.2676743952 41.3492228833 # F
403 1 3 -0.2516 14.4186013733 12.4789827629 41.9704130197 # Oc
404 1 1 0.4557 13.9515362065 12.5917939281 42.6950516701 # C
405 1 2 -0.1368 13.6677500946 13.0882137072 0.5466361768 # F
406 1 2 -0.1393 13.1637281410 12.2091987560 41.8059607021 # F
407 1 1 0.1062 13.9460641987 13.8276476935 42.7839775632 # C
408 1 2 -0.1457 13.3827262247 14.2722134854 42.1139311115 # F
409 1 2 -0.1482 14.5585893355 14.5304993630 42.0815797186 # F
410 1 4 1.1345 13.5733259554 13.8242909594 0.4873741920 # S
411 1 5 -0.6371 14.1102071480 13.1634960474 1.2653877062 # Os
412 1 5 -0.6371 12.6676390561 14.0053303525 0.1713242247 # Os
413 1 5 -0.6371 13.5708231327 14.7646332118 0.9183701345 # Os
414 1 6 1.0000 13.0486032702 15.7823855575 0.5824911099 # Na
415 1 1 0.3275 12.1929158350 12.2268021495 38.3290691778 # C
416 1 2 -0.1576 13.1780350104 11.5601251671 38.2223766821 # F
417 1 2 -0.1576 12.3799293328 13.0778307984 37.7602743892 # F
418 1 1 0.3275 11.5586258297 11.5683140250 38.2894779646 # C
419 1 2 -0.1576 10.7505447055 11.6918403204 37.6869883757 # F
420 1 2 -0.1576 12.0268953991 10.6961046856 37.9513301359 # F
421 1 1 0.3275 10.8328527574 11.6705129703 39.0085190197 # C
422 1 2 -0.1576 10.3269642159 12.5581769542 39.1510523735 # F
423 1 2 -0.1576 9.2693042870 10.9810326098 39.4584637253 # F
424 1 1 0.3275 11.0688636697 11.3852782815 39.9433416397 # C
425 1 2 -0.1576 10.3957238598 10.7561411612 40.8395054219 # F
426 1 2 -0.1576 11.1956405715 12.4664099093 40.5363134216 # F
427 1 1 0.3275 11.9852876804 10.7903696330 40.2914355329 # C
428 1 2 -0.1576 11.8587497199 10.0684493063 40.7977784413 # F
429 1 2 -0.1576 12.2682054043 10.3787697732 39.4438490899 # F
430 1 1 0.3275 12.7801217696 11.7610297770 40.4082783938 # C
431 1 2 -0.1576 14.1870680665 11.4533118264 40.7688042990 # F
432 1 2 -0.1576 12.0542833374 11.8494082088 41.5006187818 # F
433 1 1 0.3275 12.9769702694 13.2328983605 40.6420633069 # C
434 1 2 -0.1576 12.5996647221 13.5244554461 39.8910760607 # F
435 1 2 -0.1576 12.5683599231 13.3461826312 41.9392182044 # F
436 1 1 0.3275 13.6759457482 13.8113151678 40.6704048282 # C
437 1 2 -0.1576 14.1063892081 13.7739228615 41.6545941052 # F
438 1 2 -0.1576 13.7631349471 14.9012409451 41.2514448542 # F
439 1 1 0.3275 13.8795143468 13.2317629822 39.5897067683 # C
440 1 2 -0.1576 14.7176246855 13.8293998075 39.8311686839 # F
441 1 2 -0.1576 14.3428360040 12.9307214676 38.9140439651 # F
442 1 1 0.3275 14.1333691734 11.9742080043 39.9467639648 # C
443 1 2 -0.1576 15.1797102554 11.6985719546 40.2361708499 # F
444 1 2 -0.1576 13.2923481995 11.2209307942 40.3294840018 # F
445 1 1 0.3275 13.8939824066 10.6387769392 39.3632157913 # C
446 1 2 -0.1576 13.7288255718 9.7108506899 38.9966724551 # F
447 1 2 -0.1576 14.7309371501 9.7303168401 40.0155216466 # F
448 1 1 0.3275 12.7316633691 10.6365310620 38.5850470559 # C
449 1 2 -0.1576 11.8794964518 9.8059135203 38.5832186746 # F
450 1 2 -0.1576 13.0644873879 11.2761126153 37.4710638109 # F
451 1 1 0.3275 11.8899609936 10.6341727417 38.9803474207 # C
452 1 2 -0.1576 11.6039440846 11.7731600859 39.0840267762 # F
453 1 2 -0.1576 11.2884393541 10.7716877046 38.3200033233 # F
454 1 1 0.3275 11.1853400426 9.5741638055 39.5388219329 # C
455 1 2 -0.1576 10.3110792283 9.7086266162 40.0034995452 # F
456 1 2 -0.1576 10.4547335936 10.0352773635 38.7511557701 # F
457 1 1 0.2465 11.5609242322 8.5119630915 39.6234829596 # C
458 1 2 -0.1336 11.6759825758 7.5695522824 38.9727236080 # F
459 1 2 -0.1336 11.5273108455 8.2504914989 40.5957712758 # F
460 1 1 0.1317 12.9543098212 8.1330513854 39.8937282849 # C
461 1 2 -0.1193 12.9785946130 7.2401430672 40.4471837777 # F
462 1 3 -0.3109 13.1483678088 7.9588278039 39.0577004271 # Oc
463 1 1 0.4954 14.1978656881 6.8604703212 38.4506145670 # C
464 1 2 -0.1280 13.7106999946 5.7456654310 38.6738679569 # F
465 1 2 -0.1559 14.0321767221 6.7708885204 37.1692217996 # F
466 1 1 0.0465 15.3140122006 6.8443380017 38.0531653102 # C
467 1 2 -0.1122 15.1049174894 5.6170946534 37.9173449011 # F
468 1 1 0.5842 15.1178024660 7.8904195990 37.7239738557 # C
469 1 2 -0.1563 14.6455515178 7.8648541156 36.3639542180 # F
470 1 2 -0.1736 15.5228494659 8.6647279432 37.0415153635 # F
471 1 2 -0.1844 14.1891415983 8.2412586578 38.2677778873 # F
472 1 3 -0.2516 16.4492892063 6.4281024361 38.7553154981 # Oc
473 1 1 0.4557 16.7589544671 5.8595938501 37.9589663197 # C
474 1 2 -0.1368 16.7955922112 4.9456614901 38.9365706441 # F
475 1 2 -0.1393 17.1549551038 6.5792034972 37.6023675717 # F
476 1 1 0.1062 16.2460733925 5.5712236839 36.9986305466 # C
477 1 2 -0.1457 16.5513773746 6.1617555760 36.5111991337 # F
478 1 2 -0.1482 14.8270477847 4.8459164696 37.0660514880 # F
479 1 4 1.1345 16.7941713077 5.0665434413 36.4459672115 # S
480 1 5 -0.6371 17.3592963908 4.8360605622 35.8516885520 # Os
481 1 5 -0.6371 17.8803375267 5.2347989999 36.8864838556 # Os