LAMMPS output created by EMC v9.4.4, build Aug  5 2019 23:11:43

        30  atoms
        24  bonds
       16  angles
       15  dihedrals
        6  impropers

           10  atom types
           6  bond types
           4  angle types
           3  dihedral types
           2  improper types

             0    45.12594253  xlo xhi
             0    45.12594253  ylo yhi
             0    45.12594253  zlo zhi

Masses

       1   12.01115  # c
       2   18.99840  # f
       4   32.06400  # s
       5   15.99940  # o=
       6   15.99940  # cl
       7   15.99940  # o*
       8    1.00797  # hw
       9    1.00797  # hhw
       10   15.99940  # oh*

Atoms

       1       1   1  0.3460  17.9655329629   5.1691763067  16.9363615563  # c
       2       1   2 -0.0989  17.1418791463   5.5395768224  17.9710458297  # f
       3       1   2 -0.0989  18.6813988240   4.0957937412  17.5155471948  # f
       4       1   2 -0.0989  20.0550566952   5.6803888015  17.0565277078  # f
       5       1   4  1.2787  16.8281654542  15.4577514426  15.4142832766  # s
       6       1   5 -0.5765  16.1064227983  16.1792123586  16.3700747501  # o=
       7       1   5 -0.5765  16.0060189692  14.3918669988  14.9538572732  # o=
       8       1   6 -0.5765  16.4724933359  16.6191671366  13.7850003234  # cl
       9       2   7 -0.8476  18.5016375844  42.4111817462   8.3793417219  # o*
      10       2   8  0.4238  18.0400419262  42.9780866642   7.7341366063  # hw
      11       2   8  0.4238  18.5722795435  42.8969834395   9.1946786459  # hw
      12       3   7 -0.8476  29.6600537550  37.9087635905  23.2311316786  # o*
      13       3   8  0.4238  30.1328501068  38.2043034082  23.9910747651  # hw
      14       3   8  0.4238  29.1612881704  38.6993587998  23.0518234509  # hw
      15       4   1  0.3460   17.9655329629   5.1691763067  16.9363615563  # c
      16       4   2 -0.0989   17.1418791463   5.5395768224  17.9710458297  # f
      17       4   2 -0.0989   18.6813988240   4.0957937412  17.5155471948  # f
      18       4   2 -0.0989   20.0550566952   5.6803888015  17.0565277078  # f
      19       4   4  1.2787   16.8281654542  15.4577514426  15.4142832766  # s
      20       4   5 -0.5765   16.1064227983  16.23586       16.3700747501  # o=
      21       4   5 -0.5765   16.0060189692  14.3918669988  14.9538572732  # o=
      22       4   6 -0.5765   17.4723359     16.6191671366  13.7850003234  # cl
	  23	   5   9  0.416	  18.1225 		  16.6191671366  13.7850003234  # hhw		
	  24       5  10  -0.248  18.9725 		  16.6191671366  13.7850003234  # oh*
	  25	   5   9  0.416	  19.9305		   15.7145	     13.7850003234  # hhw 
 	  26	   5   9  0.416   19.9305         17.5234  		 13.7850003234  # hhw
	  27	   6   9  0.416   19.1225 		  16.6191671366  13.7850003234  # hhw
	  28 	   6  10  -0.248  19.9725 		  16.6191671366  13.7850003234  # oh*
	  29	   6   9  0.416	  20.9305		  15.7145 		 13.7850003234  # hhw
	  30	   6   9  0.416   20.9305         17.5234		 13.7850003234  # hhw

Bonds

       1       1       1       2  # c,f
       2       1       1       4  # c,f
       3       3       5       8  # s,cl
       4       2       1       5  # c,s
       5       1       1       3  # f,c
       6       4       5       6  # s,o=
       7       4       5       7  # s,o=	
       8       5       9      10  # o*,hw
       9       5       11      9  # hw,o*
      10       5       12     13  # o*,hw
      11       5       12     14  # o*,hw
      12       1       15     16  # c,f
      13       1       15     18  # c,f
      14       3       19      22  # s,cl
      15       2       15     19  # c,s
      16       1       15     17  # f,c
      17       4       19      20  # s,o=
      18       4       19      21  # s,o=
	  19	   8		24     23  # hhw, oh*  
	20		8	        24     25  # hhw, oh*
	21		8			24     26  # hhw, oh*
	22		8			28     27  # hhw, oh*
	23		8			28     29  # hhw, oh*
	24		8			28     30  # hhw, oh*

Angles

       1       2       1     681     684  # c,c,f
       2       2       1     681     682  # c,c,f
       3       2       1     681     683  # c,c,f
       4       1       1       4       7  # c,c,c
       5       2       1       4       5  # c,c,f
       6       2       1       4       6  # c,c,f
       7       2     681       1       2  # c,c,f
       8       2       4       1       2  # c,c,f
       9       8       2       1       3  # f,c,f
      10       2     681       1       3  # c,c,f
	  11       14	23		24		25	# hhw, oh*, hhw
	12		   14 	23		24		26	# hhw, oh*, hhw
	13		14		25		24		26	# hhw, oh*, hhw
	14		14		27		28		29	# hhw, oh*, hhw
	15		14		27		28		30	# hhw, oh*, hhw
	16	    14		29		28		30	# hhw, oh*, hhw

Dihedrals

       1       1       1       4       7      10  # c,c,c,c
       2       2       1       4       7       8  # c,c,c,f
       3       2       1       4       7       9  # c,c,c,f
       4       8       2       1     681     684  # f,c,c,f
       5       8       2       1     681     682  # f,c,c,f
       6       8       2       1     681     683  # f,c,c,f
       7       2       7       4       1       2  # c,c,c,f
       8       8       2       1       4       5  # f,c,c,f
       9       8       2       1       4       6  # f,c,c,f
      10       8       3       1     681     684  # f,c,c,f
      11       8       3       1     681     682  # f,c,c,f
      12       8       3       1     681     683  # f,c,c,f
      13       2       7       4       1       3  # c,c,c,f
      14       8       3       1       4       5  # f,c,c,f
      15       8       3       1       4       6  # f,c,c,f

Impropers

       1       1     681       1       4       2  # c,c,c,f
       2       1     681       1       4       3  # c,c,c,f
       3       3     681       1       2       3  # c,c,f,f
       4       3       4       1       2       3  # c,c,f,f
       5       1       1       4       7       5  # c,c,c,f
       6       1       1       4       7       6  # c,c,c,f

