LAMMPS output created by EMC v9.4.4, build Aug  6 2019 08:14:42

        7994  atoms
6867 bonds
10430 angles
13377 dihedrals

           8  atom types
           7  bond types
          12  angle types
          14  dihedral types

             0    43.07791893  xlo xhi
             0    43.07791893  ylo yhi
             0    43.07791893  zlo zhi

Masses

  	   1   12.01115  # C
       2   18.99840  # F
       3   15.99940  # Oc
       4   32.06400  # S
       5   15.99940  # Os       
	   6    22.990 	 # Na
       7    1.00797  # H
       8    15.99940  # O

Atoms

1 1 1 0.3275 18.8152000946 36.8511637401 30.2785751646 # C
2 1 2 -0.1576 18.3063707631 35.9895817099 30.0787204368 # F
3 1 2 -0.1576 19.1200346722 37.4992298474 29.6105868178 # F
4 1 1 0.3275 18.4543874190 37.3676182335 31.3745022871 # C
5 1 2 -0.1576 17.5109352934 37.7694446560 32.0214068982 # F
6 1 2 -0.1576 18.6584034068 36.9449638090 32.5101735856 # F
7 1 1 0.3275 19.3834381894 37.9740384251 31.4996102673 # C
8 1 2 -0.1576 19.2458207860 38.8963057673 32.5694742258 # F
9 1 2 -0.1576 19.1008910777 38.0766884866 30.2513518494 # F
10 1 1 0.3275 20.8130578096 37.6276049646 31.6972989357 # C
11 1 2 -0.1576 21.1734724366 38.6022756521 31.6617191253 # F
12 1 2 -0.1576 21.3173580456 37.4784021510 32.5884050658 # F
13 1 1 0.3275 21.0013304009 36.6973193125 31.5813434600 # C
14 1 2 -0.1576 21.6929209682 37.0205180951 31.0624204200 # F
15 1 2 -0.1576 21.3112067963 35.5034873482 30.8481791994 # F
16 1 1 0.3275 20.7369189756 36.2167695203 32.5327443918 # C
17 1 2 -0.1576 20.7427565127 36.3276289366 33.3768657904 # F
18 1 2 -0.1576 21.7213732366 36.5732239874 32.5036816773 # F
19 1 1 0.3275 20.0336934316 35.4553589664 32.1329205469 # C
20 1 2 -0.1576 19.3003745276 34.7857886502 31.5289424161 # F
21 1 2 -0.1576 19.9940677442 36.2268849712 31.2730001377 # F
22 1 1 0.3275 19.4550987247 35.2706619821 32.8819963872 # C
23 1 2 -0.1576 19.0519705923 36.0123207043 32.4138302591 # F
24 1 2 -0.1576 18.9409361077 35.9271130855 34.1504401852 # F
25 1 1 0.3275 19.0627982934 34.3924143790 32.6947429580 # C
26 1 2 -0.1576 18.3203752368 34.0863033313 32.9332135628 # F
27 1 2 -0.1576 19.6926360619 33.5532161459 32.8534657161 # F
28 1 1 0.3275 18.8906999293 33.7846690710 31.4736406598 # C
29 1 2 -0.1576 18.5435617890 33.4619885529 30.7521236240 # F
30 1 2 -0.1576 18.8430341113 34.5179465628 30.9182728165 # F
31 1 1 0.3275 19.7287591903 33.1381723238 30.9201293484 # C
32 1 2 -0.1576 19.3132362452 32.4630185067 29.9223272549 # F
33 1 2 -0.1576 20.2677533697 33.9335760844 30.5051250631 # F
34 1 1 0.3275 20.2568366589 32.9326763721 31.7195086109 # C
35 1 2 -0.1576 20.5742853913 32.2345628255 32.2243230507 # F
36 1 2 -0.1576 19.4364648610 32.3122374069 32.3404754467 # F
37 1 1 0.3275 20.8517129399 33.7277949301 31.9237072025 # C
38 1 2 -0.1576 20.4499933860 34.3948772370 32.4596806886 # F
39 1 2 -0.1576 21.9598709092 33.8775358796 31.4757754768 # F
40 1 1 0.3275 21.0868560892 32.9417750623 32.7296822536 # C
41 1 2 -0.1576 20.8609306610 31.7773529170 32.9333816493 # F
42 1 2 -0.1576 21.7807369007 32.2528137119 31.7464723748 # F
43 1 1 0.2465 20.8143715322 33.2991008568 33.8538868150 # C
44 1 2 -0.1336 19.7482102287 32.8849878915 33.6249004861 # F
45 1 2 -0.1336 21.3461831897 33.2631251382 34.7913002080 # F
46 1 1 0.1317 20.9039403400 34.5373363520 33.9982969866 # C
47 1 2 -0.1193 21.7506703778 34.9257207138 34.7319867868 # F
48 1 3 -0.3109 21.1091371269 34.9077884961 33.0724569961 # Oc
49 1 1 0.4954 22.1111510501 35.0746886602 32.1634414519 # C
50 1 2 -0.1280 22.6063788311 33.7826709926 32.5273963430 # F
51 1 2 -0.1559 21.6346512418 35.7715163312 31.6171429773 # F
52 1 1 0.0465 22.7751433392 35.7108226337 31.6779030550 # C
53 1 2 -0.1122 22.6819981816 36.7134374592 31.9846608388 # F
54 1 1 0.5842 23.7103635300 35.7554167147 31.0371640793 # C
55 1 2 -0.1563 23.6362120139 34.7595531092 30.7600421799 # F
56 1 2 -0.1736 24.5949642095 36.1022767616 31.3631701679 # F
57 1 2 -0.1844 23.8238083506 36.7405652412 30.7388534771 # F
58 1 3 -0.2516 23.5462442796 35.2772354541 32.2834602818 # Oc
59 1 1 0.4557 24.4394697718 34.6603211315 32.3561200872 # C
60 1 2 -0.1368 23.5405435050 33.9960764961 32.7007728561 # F
61 1 2 -0.1393 24.8593048563 34.3301867834 31.6124878301 # F
62 1 1 0.1062 25.2037740299 35.1911151693 32.8512182961 # C
63 1 2 -0.1457 25.9526407185 36.3440645078 32.6511835775 # F
64 1 2 -0.1482 26.0466188283 34.6055873311 33.2586947576 # F
65 1 4 1.1345 24.6040505589 35.0716270040 33.8058108485 # S
66 1 5 -0.6371 24.2990195310 34.3984168676 33.7927593529 # Os
67 1 5 -0.6371 23.8798944057 35.5655421621 33.7194378506 # Os
68 1 5 -0.6371 25.0673550394 35.6130726877 34.6048239271 # Os
69 1 6 1.0000 26.1451995426 35.7660116300 35.4036008504 # Na
70 1 1 0.3275 20.5274047907 34.6821253525 35.0637852266 # C
71 1 2 -0.1576 19.5397828797 34.6287977691 35.2797317240 # F
72 1 2 -0.1576 21.3434211234 34.1989253822 35.1980618608 # F
73 1 1 0.3275 20.7605111098 35.4318709994 35.5919833093 # C
74 1 2 -0.1576 21.5198759669 36.4397806624 35.5155893619 # F
75 1 2 -0.1576 19.8608237910 36.2992530564 36.0747267197 # F
76 1 1 0.3275 21.2978834403 34.4785519131 36.1458671413 # C
77 1 2 -0.1576 20.6374081300 33.8955965851 36.7452625342 # F
78 1 2 -0.1576 22.0027413967 34.6738267282 35.6268893403 # F
79 1 1 0.3275 20.9916981678 34.7804248791 36.9739154934 # C
80 1 2 -0.1576 21.4509035076 35.5718478361 36.9715643789 # F
81 1 2 -0.1576 20.0728134722 35.0048644952 37.2204894715 # F
82 1 1 0.3275 20.8173116757 34.5740473124 38.2016509178 # C
83 1 2 -0.1576 21.7378268486 33.9661874999 38.2060654939 # F
84 1 2 -0.1576 20.8876410427 35.3350292052 38.9350081735 # F
85 1 1 0.3275 19.7005420749 34.4540442969 38.3141085214 # C
86 1 2 -0.1576 19.1416631478 34.0974319966 39.5217703494 # F
87 1 2 -0.1576 20.0535320874 33.4242774722 37.9949084574 # F
88 1 1 0.3275 19.2101477810 35.4466666299 37.1568985535 # C
89 1 2 -0.1576 19.4396613160 36.6036822322 37.0180938435 # F
90 1 2 -0.1576 19.5966473832 35.1710457592 36.4489547031 # F
91 1 1 0.3275 18.3890946838 34.4038469724 36.6705694573 # C
92 1 2 -0.1576 18.8461123948 33.2570923349 36.7537399205 # F
93 1 2 -0.1576 18.4176675979 34.6508870594 37.7183195940 # F
94 1 1 0.3275 17.5171519178 34.3901819785 36.1481695200 # C
95 1 2 -0.1576 17.1459120719 35.3669218703 35.1288830372 # F
96 1 2 -0.1576 17.4312327456 35.3207561181 36.1350920416 # F
97 1 1 0.3275 16.4060592196 34.0774172965 36.2256866962 # C
98 1 2 -0.1576 15.3671052579 33.7106533391 35.6700337864 # F
99 1 2 -0.1576 16.3163786637 34.5666976350 37.1982534822 # F
100 1 1 0.3275 17.0760658320 33.1525469059 36.3972127906 # C
101 1 2 -0.1576 17.9298980161 33.2368462712 35.8503386492 # F
102 1 2 -0.1576 16.8173211156 32.0788776832 36.1141715880 # F
103 1 1 0.3275 17.1588583925 33.1913457693 37.7904430771 # C
104 1 2 -0.1576 16.1535152657 32.4994403669 37.7130066431 # F
105 1 2 -0.1576 17.3411326477 32.2159084144 37.9053573542 # F
106 1 1 0.3275 18.1010424454 33.7986915288 38.4340146098 # C
107 1 2 -0.1576 18.8436128018 33.1572113010 37.8180222759 # F
108 1 2 -0.1576 18.5821545778 33.8582427047 39.2255277635 # F
109 1 1 0.3275 17.3252254398 34.6232744287 37.7061745290 # C
110 1 2 -0.1576 16.5954120169 34.2436191978 38.1124589844 # F
111 1 2 -0.1576 17.3141097490 35.9627179521 37.3951119785 # F
112 1 1 0.2465 17.1632076668 33.9155698496 36.9210380818 # C
113 1 2 -0.1336 16.4723533007 32.8299015642 37.1055453342 # F
114 1 2 -0.1336 16.1447661474 34.8053445272 36.7219180207 # F
115 1 1 0.1317 18.3320193002 33.8646812979 35.9222811429 # C
116 1 2 -0.1193 18.5736231857 32.9564728166 35.9693451530 # F
117 1 3 -0.3109 19.3023481037 33.8514425488 35.8901535702 # Oc
118 1 1 0.4954 20.0534881902 33.2502208430 36.0247396182 # C
119 1 2 -0.1280 19.8713165803 33.0111761592 37.0820466824 # F
120 1 2 -0.1559 21.0409968550 33.5665675703 36.0262184995 # F
121 1 1 0.0465 20.3337717729 32.4693223021 35.2668921888 # C
122 1 2 -0.1122 19.2444239190 32.1108536388 35.0933536617 # F
123 1 1 0.5842 20.9446128792 31.5424010304 36.0071729090 # C
124 1 2 -0.1563 22.0308339318 32.7322199169 35.7324522762 # F
125 1 2 -0.1736 20.4649672077 31.6029315467 36.8257536106 # F
126 1 2 -0.1844 21.1926949194 30.6880180316 35.6507753856 # F
127 1 3 -0.2516 20.9912868557 32.3282633633 34.7747869606 # Oc
128 1 1 0.4557 21.3982095296 31.5556569831 35.0459305017 # C
129 1 2 -0.1368 19.9357865612 31.1186070688 35.2033671843 # F
130 1 2 -0.1393 22.2286022361 31.7728130892 36.0689660543 # F
131 1 1 0.1062 21.7908440390 31.5682431193 34.2766323052 # C
132 1 2 -0.1457 21.3744510959 30.7159971992 34.0579654491 # F
133 1 2 -0.1482 23.2429469872 31.8343818329 34.2564191172 # F
134 1 4 1.1345 21.3433277224 32.4346068372 33.6433665126 # S
135 1 5 -0.6371 20.4414458487 32.9542325919 33.0485494011 # Os
136 1 5 -0.6371 20.5753580362 31.9157620312 33.7743040096 # Os
137 1 5 -0.6371 22.4831868686 32.6603178549 32.8671028417 # Os
138 1 6 1.0000 23.2609153613 32.8170761678 33.3319589300 # Na
139 1 1 0.3275 18.0268320073 34.4966158029 35.1007387000 # C
140 1 2 -0.1576 17.9765120147 35.0016409196 34.5367971965 # F
141 1 2 -0.1576 17.4135890180 34.3140532488 34.5087044726 # F
142 1 1 0.3275 18.6311389339 35.6494857487 35.5097890350 # C
143 1 2 -0.1576 17.9480286676 36.1637750215 34.9811229387 # F
144 1 2 -0.1576 19.7661960455 36.0642545343 35.2903930524 # F
145 1 1 0.3275 18.4372626571 35.9637964485 36.1830259353 # C
146 1 2 -0.1576 17.4639934095 35.9132598632 35.7626152852 # F
147 1 2 -0.1576 18.5681994418 35.7483959229 36.8339404034 # F
148 1 1 0.3275 17.8233784395 36.6595924815 36.8280742679 # C
149 1 2 -0.1576 17.0673398515 36.7636209880 36.5418145479 # F
150 1 2 -0.1576 18.4356421796 37.2152268699 37.1552105432 # F
151 1 1 0.3275 17.8791260740 36.6200959075 38.0117535472 # C
152 1 2 -0.1576 16.8280312758 36.8092104269 38.0993040418 # F
153 1 2 -0.1576 18.0928325831 35.4826229642 38.2727571249 # F
154 1 1 0.3275 18.6135658439 36.9749835421 38.8521492715 # C
155 1 2 -0.1576 18.1141924556 37.4031532361 39.8524310186 # F
156 1 2 -0.1576 19.4798740048 36.6936665916 38.9920403791 # F
157 1 1 0.3275 19.0716268136 38.0467786170 38.5204484313 # C
158 1 2 -0.1576 18.7974345148 38.9675146989 37.9447144399 # F
159 1 2 -0.1576 19.3876432495 37.5941470611 39.2755852620 # F
160 1 1 0.3275 19.6840410368 38.4509374888 39.2469815423 # C
161 1 2 -0.1576 19.2927915043 39.0178618068 39.8474421134 # F
162 1 2 -0.1576 20.5964489188 39.2585792315 38.7228427105 # F
163 1 1 0.3275 19.8305138587 37.5414621814 40.4111182334 # C
164 1 2 -0.1576 20.3892230831 37.4532223385 41.1439106224 # F
165 1 2 -0.1576 19.7182704639 38.4225166286 40.9535020136 # F
166 1 1 0.3275 18.9389937001 36.6905258779 40.9916821670 # C
167 1 2 -0.1576 18.1554355150 37.1753930752 41.1041975066 # F
168 1 2 -0.1576 19.1494625607 35.5246687253 40.6969638110 # F
169 1 1 0.3275 18.0615531990 36.1284168487 41.9392893277 # C
170 1 2 -0.1576 17.4583793865 35.7814192397 41.4081709672 # F
171 1 2 -0.1576 17.6902700476 36.2456970595 0.1805198485 # F
172 1 1 0.3275 17.6130360593 36.9929068977 42.4553899157 # C
173 1 2 -0.1576 17.6890842256 38.0860591823 41.8198901692 # F
174 1 2 -0.1576 16.7462228532 36.5542893597 42.9533945759 # F
175 1 1 0.3275 17.6469532230 37.3693435721 0.3412707259 # C
176 1 2 -0.1576 17.0764670461 37.6628775346 1.3373431367 # F
177 1 2 -0.1576 17.1303992431 38.0899993629 42.5012417027 # F
178 1 1 0.3275 18.4515154049 37.6315798343 0.3868858196 # C
179 1 2 -0.1576 18.5972807317 38.2036436373 1.0279751487 # F
180 1 2 -0.1576 19.2303244873 36.6670992048 43.0738879497 # F
181 1 1 0.2465 19.7962460747 37.8626940279 0.7598182835 # C
182 1 2 -0.1336 19.3494228855 36.4721321217 0.8837389075 # F
183 1 2 -0.1336 19.2152239896 38.9380658357 1.3732082582 # F
184 1 1 0.1317 20.9813837714 38.1470682977 1.1475628374 # C
185 1 2 -0.1193 21.5774524746 36.9345983852 1.4400677525 # F
186 1 3 -0.3109 20.7490291700 39.1222006994 1.7863153418 # Oc
187 1 1 0.4954 20.6502822619 39.8765988205 2.8545846886 # C
188 1 2 -0.1280 20.7286470613 38.9410312938 3.4179992436 # F
189 1 2 -0.1559 19.9235224241 39.8097178379 3.4238697582 # F
190 1 1 0.0465 20.6284900972 40.5030429732 1.9304992924 # C
191 1 2 -0.1122 20.0176378557 41.2229407092 1.4132089354 # F
192 1 1 0.5842 19.3436904868 40.4840231956 2.2043929295 # C
193 1 2 -0.1563 19.1963472838 41.9645480879 2.5782867772 # F
194 1 2 -0.1736 18.5452989495 40.1065739661 1.5020241329 # F
195 1 2 -0.1844 19.2881014097 40.0247216482 2.8812414026 # F
196 1 3 -0.2516 21.2752580422 41.0994598986 2.3967512184 # Oc
197 1 1 0.4557 22.4171063644 40.9194097353 2.7701621746 # C
198 1 2 -0.1368 22.1935686899 40.1270159109 3.3357537448 # F
199 1 2 -0.1393 22.4740293287 41.8256771447 3.4945141246 # F
200 1 1 0.1062 22.7011899537 40.8355436452 1.9489788765 # C
201 1 2 -0.1457 22.9820344700 41.6844865116 1.0098616261 # F
202 1 2 -0.1482 21.7155682865 39.6630647431 2.4456290532 # F
203 1 4 1.1345 23.5681139151 41.0931398297 1.9917767369 # S
204 1 5 -0.6371 23.5161054613 42.2337217910 2.4108868749 # Os
205 1 5 -0.6371 24.3184702001 40.2848056927 2.7977517691 # Os
206 1 5 -0.6371 24.8357169717 41.3403776380 1.6013200837 # Os
207 1 6 1.0000 24.6615943362 41.4162136384 0.6804107999 # Na
208 1 1 0.3275 22.2438662522 38.0967671870 0.6844549526 # C
209 1 2 -0.1576 21.8909460785 37.7569368867 42.6686977935 # F
210 1 2 -0.1576 22.6759616880 37.8349297499 1.9280612225 # F
211 1 1 0.3275 22.3575929641 39.0032898452 0.8687463668 # C
212 1 2 -0.1576 23.1531811973 39.5914513742 1.0410543234 # F
213 1 2 -0.1576 22.1954391252 38.3834948289 42.9492362319 # F
214 1 1 0.3275 21.2720021981 39.3176775887 0.6763200091 # C
215 1 2 -0.1576 20.9077736052 39.2119252367 42.7879818804 # F
216 1 2 -0.1576 19.9052924755 39.3971383565 1.2799836844 # F
217 1 1 0.3275 22.0063242415 40.1870700188 0.6345906053 # C
218 1 2 -0.1576 22.4850112336 39.7302093097 42.7691720941 # F
219 1 2 -0.1576 22.1688197307 40.7500435799 1.1570237205 # F
220 1 1 0.3275 21.8657984492 41.2295950456 42.7469774597 # C
221 1 2 -0.1576 22.5878426126 40.9226123637 0.2560283474 # F
222 1 2 -0.1576 21.5441934123 40.9551033116 42.0154470135 # F
223 1 1 0.3275 21.3551398511 41.9474573594 42.5181537377 # C
224 1 2 -0.1576 20.8840475240 42.4575392392 0.1089533219 # F
225 1 2 -0.1576 22.1259854887 42.5192791899 42.3222127610 # F
226 1 1 0.3275 20.6426402874 41.3987182168 42.7715145122 # C
227 1 2 -0.1576 20.6115008978 40.9209415459 0.7331775063 # F
228 1 2 -0.1576 19.6626240660 40.6738820193 42.4889033567 # F
229 1 1 0.3275 19.7608910781 42.2885511029 42.2619172417 # C
230 1 2 -0.1576 18.6101132847 42.0618069390 42.8495652168 # F
231 1 2 -0.1576 20.1071279218 41.5548417906 41.4785561870 # F
232 1 1 0.3275 19.0304933711 42.8544439362 41.0833165180 # C
233 1 2 -0.1576 18.4764764315 0.5628906409 41.3628594472 # F
234 1 2 -0.1576 18.6041693347 41.6596886332 40.6332484952 # F
235 1 1 0.3275 18.9493858365 0.2857103009 40.1624752385 # C
236 1 2 -0.1576 18.2897337537 0.4609001528 40.4752535595 # F
237 1 2 -0.1576 18.7681709540 0.0472530203 39.2329575855 # F
238 1 1 0.3275 19.8418281836 0.9069958763 39.8532435086 # C
239 1 2 -0.1576 18.8911154782 0.5864758080 38.9834787404 # F
240 1 2 -0.1576 20.1740727253 43.0585191405 40.3438217509 # F
241 1 1 0.3275 21.0343485260 1.4667935803 39.4745822491 # C
242 1 2 -0.1576 21.4693059224 0.4425923266 40.0503857014 # F
243 1 2 -0.1576 21.2931519773 0.5490010159 38.5916812739 # F
244 1 1 0.3275 21.4159185244 2.4740104966 40.4920709599 # C
245 1 2 -0.1576 20.6856902595 2.2479146389 41.3644942301 # F
246 1 2 -0.1576 22.3106952273 2.3389377197 41.1238843753 # F
247 1 1 0.3275 21.0098953134 3.0804966246 41.0473756264 # C
248 1 2 -0.1576 21.2378541010 2.4286783562 42.1028833529 # F
249 1 2 -0.1576 19.7977160038 2.6929503292 41.0372678579 # F
250 1 1 0.2465 21.8862732852 4.3453891519 41.0854970100 # C
251 1 2 -0.1336 22.0528375039 4.0163796744 40.2313564949 # F
252 1 2 -0.1336 23.0192495834 4.4953557037 41.2832569669 # F
253 1 1 0.1317 21.3653636279 5.4166599202 41.4958702892 # C
254 1 2 -0.1193 20.6024486990 5.7453663772 41.2367476965 # F
255 1 3 -0.3109 21.1772675168 5.1100583956 42.2984936360 # Oc
256 1 1 0.4954 20.7473236956 5.9515009198 42.6467485925 # C
257 1 2 -0.1280 19.8764186168 6.3037702551 0.1525583896 # F
258 1 2 -0.1559 20.5534794859 6.8454378289 42.9680704083 # F
259 1 1 0.0465 19.8765913929 5.2552896564 42.3717780464 # C
260 1 2 -0.1122 19.3500920636 5.5874484906 0.4030136329 # F
261 1 1 0.5842 20.2847820031 4.6150738368 42.5626165787 # C
262 1 2 -0.1563 21.2807727904 4.0453039568 42.6028078306 # F
263 1 2 -0.1736 19.3017514776 4.3202641012 0.0664894481 # F
264 1 2 -0.1844 20.3738885056 3.5001166284 42.2126495625 # F
265 1 3 -0.2516 19.4057701627 5.0131976928 41.5725856953 # Oc
266 1 1 0.4557 19.1883053219 5.5233045288 40.4470463307 # C
267 1 2 -0.1368 19.0532788298 5.5963968902 39.6549242234 # F
268 1 2 -0.1393 18.3694243786 5.1425078951 40.5754718271 # F
269 1 1 0.1062 19.8904688996 6.3234288587 40.7037851394 # C
270 1 2 -0.1457 20.0964479515 6.2982257537 41.6939416463 # F
271 1 2 -0.1482 19.0886822730 6.7085300704 41.2135879455 # F
272 1 4 1.1345 19.3477682329 7.6962953050 40.4203733322 # S
273 1 5 -0.6371 19.0369287929 7.7827482808 39.7963007593 # Os
274 1 5 -0.6371 20.0765639844 8.9767830862 40.7795438973 # Os
275 1 5 -0.6371 18.4132672827 7.8177979116 41.3339914696 # Os
276 1 6 1.0000 17.7945579156 8.9846332702 42.1686434990 # Na
277 1 1 0.3275 21.8429973085 6.0957041368 41.0006730196 # C
278 1 2 -0.1576 22.3536546846 5.9573368920 42.2354695459 # F
279 1 2 -0.1576 21.3760215952 6.1012662074 39.9750046567 # F
280 1 1 0.3275 22.5111392655 6.9041330813 40.7901680242 # C
281 1 2 -0.1576 23.6452725779 7.0870708005 40.9806108704 # F
282 1 2 -0.1576 22.4734304144 7.6471282046 39.7492869751 # F
283 1 1 0.3275 21.7859428532 7.4569390377 41.1778326453 # C
284 1 2 -0.1576 22.0999460602 8.2777657792 40.2843480871 # F
285 1 2 -0.1576 20.9612915062 7.2870248388 40.9760769672 # F
286 1 1 0.3275 22.4157388829 6.9079919252 41.6162438613 # C
287 1 2 -0.1576 23.3389887266 7.4494649332 41.6883397116 # F
288 1 2 -0.1576 22.9031248067 6.8356629061 43.0544121555 # F
289 1 1 0.3275 22.3241670687 5.6733127824 41.3906141295 # C
290 1 2 -0.1576 22.3625859562 4.9970832228 40.2361703256 # F
291 1 2 -0.1576 23.6462880819 5.7825968481 41.6369795705 # F
292 1 1 0.3275 21.1187902491 6.0384526832 41.8013589586 # C
293 1 2 -0.1576 20.3719066136 5.3549305762 41.8061278844 # F
294 1 2 -0.1576 21.3519545862 6.2031585133 42.9707808619 # F
295 1 1 0.3275 21.2632380265 7.1085366149 41.5143098073 # C
296 1 2 -0.1576 20.3731889754 7.2632749480 41.3654745025 # F
297 1 2 -0.1576 21.6967478456 7.4539550220 40.3877831809 # F
298 1 1 0.3275 21.7590460930 7.9180257450 42.2041936951 # C
299 1 2 -0.1576 22.5891014321 8.5679777907 42.3183724511 # F
300 1 2 -0.1576 20.5930221063 8.6050469751 42.1125603237 # F
301 1 1 0.3275 22.3019982493 7.7505910959 0.5012201488 # C
302 1 2 -0.1576 22.7073767953 8.5090835667 0.6292934375 # F
303 1 2 -0.1576 21.5781994056 8.2866082251 1.0796008980 # F
304 1 1 0.3275 22.7074247771 6.9878895416 0.8974327326 # C
305 1 2 -0.1576 23.6932322102 6.4615244698 0.4937093741 # F
306 1 2 -0.1576 22.1401605460 6.0051868270 1.2290839274 # F
307 1 1 0.3275 22.5216336757 7.2548143154 2.0819383406 # C
308 1 2 -0.1576 23.3763750301 7.5620207672 2.5884470838 # F
309 1 2 -0.1576 21.6708558381 6.3655165828 2.2078076691 # F
310 1 1 0.3275 22.0495930771 7.9010846620 2.3974655229 # C
311 1 2 -0.1576 20.5494072872 8.2370974272 2.3707291182 # F
312 1 2 -0.1576 22.4250970478 8.3010914089 3.2742269360 # F
313 1 1 0.3275 22.6106351208 8.7681185674 1.9849726117 # C
314 1 2 -0.1576 22.0936806163 9.6831926484 1.3496518763 # F
315 1 2 -0.1576 23.6770006231 9.0901320250 2.4691207055 # F
316 1 1 0.3275 22.5728506740 9.5435005635 2.5345966499 # C
317 1 2 -0.1576 23.2728804884 9.6400541271 3.1771754561 # F
318 1 2 -0.1576 22.5198099834 9.3492042246 1.1537527568 # F
319 1 1 0.2465 21.8677351588 9.9918960671 2.6637685349 # C
320 1 2 -0.1336 21.4614815662 10.6901801976 1.4846808803 # F
321 1 2 -0.1336 22.8533364473 10.2145679391 2.9716348008 # F
322 1 1 0.1317 20.9345377261 10.0463413053 3.8911459598 # C
323 1 2 -0.1193 20.8922304498 8.9275586557 3.6869691064 # F
324 1 3 -0.3109 20.0506127597 10.4169814720 3.8722413652 # Oc
325 1 1 0.4954 20.2958979152 10.8521941326 3.1796424565 # C
326 1 2 -0.1280 20.2410693547 10.2267269666 2.3516099408 # F
327 1 2 -0.1559 21.3391257200 11.4026635154 3.0088927441 # F
328 1 1 0.0465 19.3397327900 11.4926523894 3.3952375549 # C
329 1 2 -0.1122 18.7859026835 11.3552964752 2.4073474166 # F
330 1 1 0.5842 18.9004176902 10.8543383313 3.7998643696 # C
331 1 2 -0.1563 18.8367858303 9.7845178080 4.0227022126 # F
332 1 2 -0.1736 17.8255481455 11.2214043518 3.9862152118 # F
333 1 2 -0.1844 19.4793513753 10.4330469122 5.0649469567 # F
334 1 3 -0.2516 19.2907998489 12.3693701904 3.5927797897 # Oc
335 1 1 0.4557 18.4290182390 12.8483925550 4.5631143774 # C
336 1 2 -0.1368 18.9984468740 13.4438889063 5.2191890735 # F
337 1 2 -0.1393 18.5408896904 13.8696589143 3.8392517407 # F
338 1 1 0.1062 18.0994675776 12.4794466419 4.3973191036 # C
339 1 2 -0.1457 17.5660256710 11.4520747551 5.1551032928 # F
340 1 2 -0.1482 18.9837991527 12.5537125735 5.1857516283 # F
341 1 4 1.1345 17.6950106900 12.5096826008 3.5447017728 # S
342 1 5 -0.6371 16.3911308380 12.7064957770 4.1579567791 # Os
343 1 5 -0.6371 17.9935216245 11.5238997111 2.9186174584 # Os
344 1 5 -0.6371 17.0623166119 12.8940181092 2.8304371565 # Os
345 1 6 1.0000 17.6110547488 12.3459260374 2.0879705527 # Na
346 1 1 0.3275 21.4036971165 11.0108079730 4.3100695874 # C
347 1 2 -0.1576 22.3083420002 11.3333374167 3.4423895653 # F
348 1 2 -0.1576 20.5562787644 10.9533141936 4.2867340628 # F
349 1 1 0.3275 21.5826132904 11.6180780138 5.1037368054 # C
350 1 2 -0.1576 20.7918699917 11.0916356267 6.0115582243 # F
351 1 2 -0.1576 22.4349231121 12.1940547999 5.1433602040 # F
352 1 1 0.3275 21.1488797144 12.7587994706 5.1582546750 # C
353 1 2 -0.1576 20.4294988320 12.7856865526 5.7483354861 # F
354 1 2 -0.1576 22.5297284715 13.4869364718 5.3020265039 # F
355 1 1 0.3275 20.7201964795 13.4118267911 4.3887485081 # C
356 1 2 -0.1576 19.9763039525 13.3233834308 3.6242362124 # F
357 1 2 -0.1576 19.9678804752 13.9375643472 4.4172533345 # F
358 1 1 0.3275 21.5876564662 14.2316989911 4.5748681404 # C
359 1 2 -0.1576 22.0320275920 13.9508702798 3.6227928649 # F
360 1 2 -0.1576 21.0671698445 15.2434384309 4.4118127016 # F
361 1 1 0.3275 22.1973031616 14.8523308344 5.0230953656 # C
362 1 2 -0.1576 22.8889593087 14.1262508225 5.0524496544 # F
363 1 2 -0.1576 22.0734761385 15.0605962167 4.3798302829 # F
364 1 1 0.3275 22.2326414275 15.9688607646 5.6369674422 # C
365 1 2 -0.1576 22.0737962926 15.9588617670 6.5812211285 # F
366 1 2 -0.1576 22.8016359159 17.0456870997 6.0556265484 # F
367 1 1 0.3275 21.8755011321 16.6862213487 5.0314112345 # C
368 1 2 -0.1576 22.6477936726 17.3819193877 4.9116376761 # F
369 1 2 -0.1576 21.3568105046 16.8857845331 5.5805595071 # F
370 1 1 0.3275 21.5237291878 16.9643810479 3.9428870505 # C
371 1 2 -0.1576 22.3856109831 17.4195669638 3.5598758509 # F
372 1 2 -0.1576 20.8063726747 17.7162649444 3.9583428021 # F
373 1 1 0.3275 21.0026052877 16.1152737683 3.3212123135 # C
374 1 2 -0.1576 20.2484778517 15.6768621270 3.5106619094 # F
375 1 2 -0.1576 21.5407812078 16.5107331089 2.2300246915 # F
376 1 1 0.3275 20.5983188673 15.6954039654 2.1431219903 # C
377 1 2 -0.1576 19.6629825392 16.0486334934 1.6998108158 # F
378 1 2 -0.1576 20.7176583211 16.6931237676 2.1434161743 # F
379 1 1 0.3275 21.0529896333 15.3297162755 1.1527839841 # C
380 1 2 -0.1576 20.6246281149 15.4358393499 0.2092045583 # F
381 1 2 -0.1576 21.2553797989 14.2910099227 0.7305372254 # F
382 1 1 0.3275 21.8736984025 15.8050885967 1.2852897053 # C
383 1 2 -0.1576 22.8752811333 15.1534309337 0.3199125238 # F
384 1 2 -0.1576 21.4750421686 16.8167000193 1.2212346070 # F
385 1 1 0.3275 22.3633498860 16.1888574589 1.9714151656 # C
386 1 2 -0.1576 21.8012563459 15.5762656495 2.3246979463 # F
387 1 2 -0.1576 22.1960481960 16.7978758018 1.7327113775 # F
388 1 1 0.2465 22.8732781408 16.5617567473 2.9073144017 # C
389 1 2 -0.1336 22.8928897852 17.9727507148 2.8406950796 # F
390 1 2 -0.1336 22.3675864600 15.8294977441 3.9227617317 # F
391 1 1 0.1317 24.3520391648 15.8225171255 3.2236238202 # C
392 1 2 -0.1193 24.3015500672 14.9633764566 2.7402169911 # F
393 1 3 -0.3109 24.9285201591 16.1924533285 2.6888539968 # Oc
394 1 1 0.4954 25.5232393985 17.2544791500 2.7568826611 # C
395 1 2 -0.1280 26.5826210686 17.0658431514 2.8452588671 # F
396 1 2 -0.1559 25.2887022653 17.8590522049 1.9842284105 # F
397 1 1 0.0465 25.1994015719 17.9834275103 3.6155078629 # C
398 1 2 -0.1122 25.5205793783 17.8287693748 4.6846933020 # F
399 1 1 0.5842 24.0232104369 18.5635369581 3.6225361529 # C
400 1 2 -0.1563 23.6511458375 19.2089671741 2.7656318236 # F
401 1 2 -0.1736 23.4067877132 17.7850019854 3.5623209715 # F
402 1 2 -0.1844 24.2413982280 19.2455002314 4.3518566412 # F
403 1 3 -0.2516 25.7881511274 18.8946058740 3.2178721107 # Oc
404 1 1 0.4557 26.8011043070 18.9454923712 3.5267402844 # C
405 1 2 -0.1368 27.7627612243 18.1047387495 3.7260828312 # F
406 1 2 -0.1393 26.2762172500 18.9776457443 4.3630787064 # F
407 1 1 0.1062 27.0410521027 19.6634902339 3.7646113023 # C
408 1 2 -0.1457 28.0779625693 19.1715242366 4.0346480482 # F
409 1 2 -0.1482 26.8582720844 19.7115484164 4.8971177048 # F
410 1 4 1.1345 26.8091678338 20.5143221098 2.9730980618 # S
411 1 5 -0.6371 26.2931004358 20.8355784840 2.1026659225 # Os
412 1 5 -0.6371 26.9577987414 21.1738791556 3.7436832487 # Os
413 1 5 -0.6371 27.6714854582 20.1758850856 2.6583842920 # Os
414 1 6 1.0000 28.6188666723 20.1363717972 2.3135583699 # Na
415 1 1 0.3275 24.2418249368 15.8361500008 4.4406485377 # C
416 1 2 -0.1576 24.9943635282 15.3933055644 4.1046772508 # F
417 1 2 -0.1576 24.8371505683 15.6554112401 5.2167600616 # F
418 1 1 0.3275 24.0966080305 16.5051087118 5.4113526825 # C
419 1 2 -0.1576 24.4747213380 17.6686899232 5.2212775189 # F
420 1 2 -0.1576 24.7741805620 16.6168921016 6.4490045737 # F
421 1 1 0.3275 23.9516260805 15.5386292510 5.8177242563 # C
422 1 2 -0.1576 23.4696657431 15.7025238412 6.7791386673 # F
423 1 2 -0.1576 23.1617639871 15.0821755928 5.3480155210 # F
424 1 1 0.3275 24.2832159587 14.6212406156 5.9847443005 # C
425 1 2 -0.1576 25.2024118683 14.9554327317 6.4685745759 # F
426 1 2 -0.1576 23.4549911564 14.1727907839 6.5640691386 # F
427 1 1 0.3275 23.9924431563 13.4181236830 6.2026760634 # C
428 1 2 -0.1576 23.0368643726 12.8472143787 6.2491127171 # F
429 1 2 -0.1576 23.9017916234 12.9901623054 5.0835905777 # F
430 1 1 0.3275 24.6250264447 12.9672802245 7.1857348389 # C
431 1 2 -0.1576 24.6457775587 14.1754144592 7.4110321497 # F
432 1 2 -0.1576 25.4469961645 12.4493323037 6.8340985628 # F
433 1 1 0.3275 24.7474074242 12.1252826517 8.0531356384 # C
434 1 2 -0.1576 26.0217466344 12.4326771539 8.2067560895 # F
435 1 2 -0.1576 25.0182234601 10.8365723821 8.5666526560 # F
436 1 1 0.3275 23.6856977069 12.0139803181 8.8815657648 # C
437 1 2 -0.1576 24.3891579492 11.6555784021 9.3410522083 # F
438 1 2 -0.1576 23.7263734232 12.5301542084 7.9042770788 # F
439 1 1 0.3275 22.9148436461 11.9745564923 9.4642488975 # C
440 1 2 -0.1576 22.6946477199 13.0251256863 9.2879533120 # F
441 1 2 -0.1576 22.1325350297 11.7088955773 9.0593354685 # F
442 1 1 0.3275 24.0134343576 11.6097138179 10.4166339945 # C
443 1 2 -0.1576 24.5333551591 10.9202056960 11.4159381948 # F
444 1 2 -0.1576 24.2610113944 12.3714344433 10.6985691222 # F
445 1 1 0.3275 23.8872607660 11.3703476025 11.6583843593 # C
446 1 2 -0.1576 23.2028427923 12.1622941108 12.0582726796 # F
447 1 2 -0.1576 24.1828137946 12.0095085791 12.3183935533 # F
448 1 1 0.3275 24.6505561354 10.5609883956 11.9791735675 # C
449 1 2 -0.1576 24.7713232469 10.4795287779 12.9185586118 # F
450 1 2 -0.1576 25.2160770786 11.1878393043 11.4674999047 # F
451 1 1 0.3275 25.3771362831 9.3389242991 10.9284188522 # C
452 1 2 -0.1576 25.0988569745 8.8842498524 9.7004701359 # F
453 1 2 -0.1576 25.0798297062 8.5321921414 11.7296298379 # F
454 1 1 0.3275 26.3919370872 8.9207892402 11.1332686233 # C
455 1 2 -0.1576 26.8340233889 9.4480432806 11.9202493147 # F
456 1 2 -0.1576 26.3279528582 8.2507066385 12.2778445337 # F
457 1 1 0.2465 27.2397440261 9.0024192197 10.1176555012 # C
458 1 2 -0.1336 28.4493559453 9.1244471136 10.3075622396 # F
459 1 2 -0.1336 27.1351756302 8.2029777777 9.5990559365 # F
460 1 1 0.1317 27.4362933389 9.8760382213 9.4176360949 # C
461 1 2 -0.1193 26.4204887056 9.2895296051 8.5668761054 # F
462 1 3 -0.3109 26.6763629169 10.8121953125 9.4737558022 # Oc
463 1 1 0.4954 26.4787291240 11.6203160493 8.8622308465 # C
464 1 2 -0.1280 27.2421224231 11.7743324763 7.6558550871 # F
465 1 2 -0.1559 26.3583241006 12.0585415952 9.9067934444 # F
466 1 1 0.0465 25.9955213623 10.7748399709 7.8346732200 # C
467 1 2 -0.1122 27.1578888809 10.8778069305 7.2348434858 # F
468 1 1 0.5842 24.7573935933 10.8162109663 7.1092035324 # C
469 1 2 -0.1563 25.0557780374 11.5461696111 6.2599613815 # F
470 1 2 -0.1736 25.1710960979 11.7600389854 7.6393613328 # F
471 1 2 -0.1844 23.5215917061 10.9139401237 6.4463149286 # F
472 1 3 -0.2516 25.9297085335 9.1106747946 7.9449080719 # Oc
473 1 1 0.4557 25.6798227636 8.0572153460 7.9409035973 # C
474 1 2 -0.1368 26.5946173834 7.0152753584 8.0396260984 # F
475 1 2 -0.1393 24.7952177947 7.8727447736 8.6656338012 # F
476 1 1 0.1062 24.7046346915 8.1433120614 7.2041969463 # C
477 1 2 -0.1457 25.6398499318 8.7468916269 6.2987554440 # F
478 1 2 -0.1482 24.0332255631 7.0484994287 7.1275506034 # F
479 1 4 1.1345 24.1158359890 8.8427487619 7.3193981170 # S
480 1 5 -0.6371 23.2818168635 8.0367688233 7.1183957588 # Os
481 1 5 -0.6371 25.3703714370 9.2751720295 7.2388495341 # Os
482 1 5 -0.6371 23.8454204999 9.5800998809 7.8627703396 # Os
483 1 6 1.0000 24.6702260578 9.9601631349 8.5302095213 # Na