LAMMPS output created by EMC v9.4.4, build Aug  6 2019 08:14:42

        7994  atoms
6867 bonds
10430 angles
13377 dihedrals

           8  atom types
           7  bond types
          12  angle types
          14  dihedral types

             0    43.07791893  xlo xhi
             0    43.07791893  ylo yhi
             0    43.07791893  zlo zhi

Masses

       1   12.01115  # c
       2   18.99840  # f
       3   15.99940  # oc
       4   32.06400  # s
       5   15.99940  # o=       
	   6    22.990 	 # na+
       7    1.00797  # hw
       8    15.99940  # o*

Atoms

1 1 1 0.3275 19.9482156136 23.5455604358 21.5536671689 # C
2 1 2 -0.1576 20.0433647201 22.9418756019 22.0983958194 # F
3 1 2 -0.1576 19.1784620747 24.4353479786 21.2675568733 # F
4 1 1 0.3275 19.5571363187 22.5193228279 20.6989956097 # C
5 1 2 -0.1576 19.3497036382 21.5300063051 21.0574442470 # F
6 1 2 -0.1576 20.3881555767 22.2002654415 20.1368303035 # F
7 1 1 0.3275 18.7341384093 23.0915153060 20.1732764750 # C
8 1 2 -0.1576 19.4332246298 23.9768666549 20.6260315606 # F
9 1 2 -0.1576 17.8414836127 22.9004389887 20.7554966945 # F
10 1 1 0.3275 19.1878178515 23.5557810784 18.7374321606 # C
11 1 2 -0.1576 18.8698576466 24.4247275103 18.4340981433 # F
12 1 2 -0.1576 19.7878214944 22.7851943201 18.7856062634 # F
13 1 1 0.3275 18.4243677884 23.3241507841 17.7744959644 # C
14 1 2 -0.1576 18.1165854863 24.0274463759 17.2298521881 # F
15 1 2 -0.1576 18.5400449548 22.6332873205 16.9631992333 # F
16 1 1 0.3275 17.7924302234 22.5260201782 17.8246983530 # C
17 1 2 -0.1576 16.8396284880 23.1138451489 18.3821686735 # F
18 1 2 -0.1576 17.8018401043 21.8499670572 16.6777107321 # F
19 1 1 0.3275 17.6636145225 21.7703272887 18.5929732433 # C
20 1 2 -0.1576 17.2054367060 21.7612503293 17.7435716975 # F
21 1 2 -0.1576 18.1965587539 22.4276510095 19.6971869766 # F
22 1 1 0.3275 17.3157643780 21.1745577716 19.2217990261 # C
23 1 2 -0.1576 16.3703994987 21.6145884501 19.4717175476 # F
24 1 2 -0.1576 17.9769774351 20.3952902800 19.1558963712 # F
25 1 1 0.3275 17.5697427808 22.0554945424 19.9851545150 # C
26 1 2 -0.1576 18.2956961014 21.9583032581 20.5117338915 # F
27 1 2 -0.1576 17.6595660203 22.7998794401 19.0761048376 # F
28 1 1 0.3275 16.8440534995 22.1813157599 20.6712258630 # C
29 1 2 -0.1576 16.8786262054 21.2337830065 21.0746583387 # F
30 1 2 -0.1576 16.1538723961 22.6722856866 20.4714190388 # F
31 1 1 0.3275 17.1019703356 22.3572736070 21.6396313612 # C
32 1 2 -0.1576 18.0300971202 21.3356998952 21.5724663564 # F
33 1 2 -0.1576 16.6529899957 22.0049744388 22.2247110442 # F
34 1 1 0.3275 16.8964241493 22.6854723528 22.6600065830 # C
35 1 2 -0.1576 17.7544133567 23.1152653256 23.0155601350 # F
36 1 2 -0.1576 16.3558532609 21.8503891999 23.0894267343 # F
37 1 1 0.3275 16.3043093608 23.3561910552 23.3612615782 # C
38 1 2 -0.1576 16.5946595286 24.5645123178 23.8495155988 # F
39 1 2 -0.1576 15.4068501295 23.9141661149 23.7293344015 # F
40 1 1 0.3275 16.7043781355 22.9863576093 24.2530241311 # C
41 1 2 -0.1576 16.2797446741 21.9960389592 24.2714889738 # F
42 1 2 -0.1576 17.1812142894 23.7666625049 24.0895433917 # F
43 1 1 0.2465 16.6720101269 23.1068777611 25.3831753780 # C
44 1 2 -0.1336 17.3020289561 24.4112521273 25.2475625888 # F
45 1 2 -0.1336 16.7657815147 23.3416727683 26.4156870840 # F
46 1 1 0.1317 16.5763770278 22.3636601933 25.7503429927 # C
47 1 2 -0.1193 17.7860027332 22.4619950027 25.8631154453 # F
48 1 3 -0.3109 16.4342107553 22.1294787527 26.5740872290 # Oc
49 1 1 0.4954 16.3058714271 21.3210199957 27.3141398356 # C
50 1 2 -0.1280 17.2454987913 20.9641295170 27.1398211010 # F
51 1 2 -0.1559 15.0930973237 21.1722561165 27.2962643333 # F
52 1 1 0.0465 16.0977007005 21.3414854081 28.1763365818 # C
53 1 2 -0.1122 15.4326484470 22.3577902487 28.2824362970 # F
54 1 1 0.5842 15.5034809479 20.8083483637 28.1433919885 # C
55 1 2 -0.1563 14.5524476440 20.5768004558 27.5066258479 # F
56 1 2 -0.1736 16.2832323415 20.6330118845 27.2191442817 # F
57 1 2 -0.1844 15.8963551492 19.9097203466 28.8852568429 # F
58 1 3 -0.2516 16.8706134161 21.3763778308 28.8992647069 # Oc
59 1 1 0.4557 16.9263018031 22.4608717569 29.9026525976 # C
60 1 2 -0.1368 17.2348353559 23.6203315265 30.2646866500 # F
61 1 2 -0.1393 16.0246898081 21.8868668115 30.3941774754 # F
62 1 1 0.1062 17.8385801877 22.1234440270 30.2795452223 # C
63 1 2 -0.1457 18.4399834051 22.5711101088 29.7593395905 # F
64 1 2 -0.1482 17.5375775557 21.0065652614 29.5543843967 # F
65 1 4 1.1345 17.9282549277 21.5678692427 31.2141372841 # S
66 1 5 -0.6371 17.2070125538 21.4518263749 32.2174670801 # Os
67 1 5 -0.6371 18.6958689586 22.3017938663 31.0714226306 # Os
68 1 5 -0.6371 17.7621953589 20.6903862691 30.9338123245 # Os
69 1 6 1.0000 17.9154006668 20.2850397700 30.3138064585 # Na
70 1 1 0.3275 15.9019126433 21.3529552371 25.1490570824 # C
71 1 2 -0.1576 15.9958906726 21.3467590573 24.1860755652 # F
72 1 2 -0.1576 16.0247116570 20.6538829690 26.0290901037 # F
73 1 1 0.3275 15.1973726806 21.6689107657 25.4388298085 # C
74 1 2 -0.1576 15.2587344798 22.5452583439 25.0023374824 # F
75 1 2 -0.1576 14.5570190123 21.1125270216 25.4206184590 # F
76 1 1 0.3275 14.9212983386 21.8323708003 26.3673423782 # C
77 1 2 -0.1576 14.8442687162 21.0933680648 26.3845223672 # F
78 1 2 -0.1576 13.8555881853 22.0072826342 26.4046981644 # F
79 1 1 0.3275 15.4546804355 22.4490373130 27.2645010774 # C
80 1 2 -0.1576 16.5808504800 22.0511745987 27.6494860100 # F
81 1 2 -0.1576 14.4355265143 22.1319214337 27.8813409885 # F
82 1 1 0.3275 15.7333346712 23.6597026267 26.4036773160 # C
83 1 2 -0.1576 16.3760439428 24.3538655362 26.9123890123 # F
84 1 2 -0.1576 15.9264707552 23.2145210910 25.7201024926 # F
85 1 1 0.3275 14.9530797612 24.2870234242 26.3198301860 # C
86 1 2 -0.1576 14.8422640015 24.8290530319 25.3123887739 # F
87 1 2 -0.1576 15.6319114783 24.2408233021 27.6084365224 # F
88 1 1 0.3275 13.8185482102 23.9150581398 26.1435710065 # C
89 1 2 -0.1576 12.9455089775 23.2350682114 25.4253997674 # F
90 1 2 -0.1576 13.6562802603 23.3822547283 27.0588584640 # F
91 1 1 0.3275 13.4567402646 24.8499190500 25.1833471777 # C
92 1 2 -0.1576 13.9593041476 25.5650561495 25.4895472112 # F
93 1 2 -0.1576 13.7208123315 24.1614990297 24.3936005332 # F
94 1 1 0.3275 12.6449745816 25.7358696386 25.1868290397 # C
95 1 2 -0.1576 11.6312889570 25.6383349422 25.2003627497 # F
96 1 2 -0.1576 12.2983895774 25.8009226731 26.1516425872 # F
97 1 1 0.3275 12.9430005404 26.6681543272 24.5252462686 # C
98 1 2 -0.1576 12.9192640026 26.4140200335 23.4872429356 # F
99 1 2 -0.1576 14.0646877525 25.9296537177 24.7963362473 # F
100 1 1 0.3275 12.5963613377 27.7290323390 24.6668879634 # C
101 1 2 -0.1576 12.3743057237 27.9279194325 25.5252950916 # F
102 1 2 -0.1576 13.6600796066 28.2275195280 24.2826206784 # F
103 1 1 0.3275 11.7346775104 27.1457132723 24.3057739444 # C
104 1 2 -0.1576 11.9079383541 27.4911572544 22.8149774436 # F
105 1 2 -0.1576 10.6540831527 27.9301240680 24.0748989877 # F
106 1 1 0.3275 12.1379268690 26.0948141538 24.1516549082 # C
107 1 2 -0.1576 12.2804953023 25.3776581030 23.2470627004 # F
108 1 2 -0.1576 11.0179759909 26.3495609807 24.5590275415 # F
109 1 1 0.3275 12.4985694595 24.8869259744 24.4388290241 # C
110 1 2 -0.1576 12.2765474922 24.6239047914 25.4377788767 # F
111 1 2 -0.1576 11.7756880512 24.3507622498 24.1827751303 # F
112 1 1 0.2465 13.7335698200 24.4840974948 23.8860127712 # C
113 1 2 -0.1336 13.5598919345 24.6685703329 23.0864285696 # F
114 1 2 -0.1336 14.9649244239 25.2754003011 24.6016162364 # F
115 1 1 0.1317 13.9416641614 23.4760712894 24.2256354673 # C
116 1 2 -0.1193 14.2016745775 22.5476131116 24.1834633909 # F
117 1 3 -0.3109 13.2102028562 22.7440068813 23.6057938131 # Oc
118 1 1 0.4954 12.4545164914 21.9131813918 23.3607260092 # C
119 1 2 -0.1280 12.0104599904 21.3576530987 22.6053993309 # F
120 1 2 -0.1559 13.2312911297 21.2720406830 22.9611583895 # F
121 1 1 0.0465 11.3747124887 21.6469179875 24.0504367495 # C
122 1 2 -0.1122 11.0283895987 20.6764966495 24.4710842508 # F
123 1 1 0.5842 10.4906623761 21.7305694089 23.6080489264 # C
124 1 2 -0.1563 10.6823570836 21.8334369591 22.3197990887 # F
125 1 2 -0.1736 9.9019030705 22.7985598249 23.8511035633 # F
126 1 2 -0.1844 9.9151398453 21.3315252292 23.2718050361 # F
127 1 3 -0.2516 11.8129701947 21.8936068477 24.7597646507 # Oc
128 1 1 0.4557 11.2413599383 21.6156305707 25.9184410274 # C
129 1 2 -0.1368 10.5254373974 22.6065114510 26.2171244371 # F
130 1 2 -0.1393 10.2576484624 21.0836404966 26.0330504908 # F
131 1 1 0.1062 11.8063071175 21.0591543365 26.4432010016 # C
132 1 2 -0.1457 12.6468947855 20.9765331350 26.0601573293 # F
133 1 2 -0.1482 11.7696892893 20.0668978436 26.4373028623 # F
134 1 4 1.1345 11.1578571249 21.6098155587 27.2046634709 # S
135 1 5 -0.6371 11.8853415613 22.1231311228 27.5557235600 # Os
136 1 5 -0.6371 10.5040607867 20.8912770620 27.9739166338 # Os
137 1 5 -0.6371 10.5818054754 22.0791850439 26.9706194337 # Os
138 1 6 1.0000 9.9577175831 22.7619843069 27.0480690885 # Na
139 1 1 0.3275 14.2631773573 24.3254295891 24.8002049968 # C
140 1 2 -0.1576 15.5133819432 23.5564619608 25.1089090747 # F
141 1 2 -0.1576 14.2530574455 24.9837771942 23.7178908038 # F
142 1 1 0.3275 14.3577093573 24.6497413327 25.6884865755 # C
143 1 2 -0.1576 14.6957969203 25.8195677284 26.0964060085 # F
144 1 2 -0.1576 14.3375346413 24.7065738104 26.8590026116 # F
145 1 1 0.3275 14.6289432486 23.4716425960 25.8162154018 # C
146 1 2 -0.1576 15.1203313979 23.5629449231 27.0752634846 # F
147 1 2 -0.1576 14.3722841195 23.2527709437 24.8379236856 # F
148 1 1 0.3275 14.2011511476 22.3843942622 25.1845029735 # C
149 1 2 -0.1576 14.7376107545 21.9565650957 24.6271228667 # F
150 1 2 -0.1576 13.3999543985 23.0124761075 24.7113410170 # F
151 1 1 0.3275 13.8034225514 21.3198016246 25.0260325140 # C
152 1 2 -0.1576 13.3071349920 21.2609393493 25.5264020946 # F
153 1 2 -0.1576 13.2559655902 21.1635288884 24.3163857310 # F
154 1 1 0.3275 14.8599505309 20.4817289237 24.4266102343 # C
155 1 2 -0.1576 15.0234245574 20.7946743729 23.0772188116 # F
156 1 2 -0.1576 15.8675212005 20.0971316582 24.3481524958 # F
157 1 1 0.3275 14.2893340747 19.3513944569 24.5470070232 # C
158 1 2 -0.1576 13.3593941514 19.1818878655 24.1219929794 # F
159 1 2 -0.1576 14.9044790082 18.4362422653 23.8960367606 # F
160 1 1 0.3275 14.8978416922 18.7879274025 25.2263439595 # C
161 1 2 -0.1576 15.1740159773 19.7807110412 25.3778576988 # F
162 1 2 -0.1576 14.2979358279 19.3504304343 26.4233563036 # F
163 1 1 0.3275 15.6817177022 17.9314050621 24.6518796451 # C
164 1 2 -0.1576 16.2280286984 18.3934044027 24.0231901498 # F
165 1 2 -0.1576 14.8594457549 17.6197745326 25.5189652356 # F
166 1 1 0.3275 16.0142657565 16.8994734865 24.0907791374 # C
167 1 2 -0.1576 15.7500568316 15.6298200350 24.5179830304 # F
168 1 2 -0.1576 16.5137160577 17.2798553966 23.0516664080 # F
169 1 1 0.3275 17.1166726935 16.8150834486 23.7997343247 # C
170 1 2 -0.1576 18.0093743492 17.3003951931 24.4766609832 # F
171 1 2 -0.1576 17.5916865490 16.9680726546 23.0875299900 # F
172 1 1 0.3275 18.2425202557 16.2524921778 24.2493757071 # C
173 1 2 -0.1576 18.4715367531 16.3682573062 25.1498921424 # F
174 1 2 -0.1576 18.9548594231 17.0134327778 24.1273189277 # F
175 1 1 0.3275 18.4917842003 15.0277406732 23.5501273755 # C
176 1 2 -0.1576 19.1423660801 14.9694935104 24.4927852892 # F
177 1 2 -0.1576 18.6074191439 15.2064960140 22.5087245807 # F
178 1 1 0.3275 17.5192725716 14.9178501356 22.9886873868 # C
179 1 2 -0.1576 17.4760841340 15.8894652803 22.7646455466 # F
180 1 2 -0.1576 17.6633762820 14.0461607323 23.8608515242 # F
181 1 1 0.2465 17.3805935985 14.6431358578 21.9434323110 # C
182 1 2 -0.1336 17.9297209482 14.4893825139 21.1914352357 # F
183 1 2 -0.1336 16.6324779144 14.9363292024 21.3261448389 # F
184 1 1 0.1317 17.3027779219 13.6594656829 21.7012791814 # C
185 1 2 -0.1193 16.7164606432 13.2360774359 20.9249846220 # F
186 1 3 -0.3109 18.1044857226 13.5628474948 21.7979540981 # Oc
187 1 1 0.4954 18.9732534165 13.9699087610 22.4792320148 # C
188 1 2 -0.1280 19.6812013138 12.9550846231 22.8527238858 # F
189 1 2 -0.1559 19.6927994655 14.4743732391 21.6660231189 # F
190 1 1 0.0465 18.1081374045 14.1654180912 23.0581038587 # C
191 1 2 -0.1122 17.3000694440 14.8535849519 23.4132174303 # F
192 1 1 0.5842 17.4095921372 13.3882551622 22.9462874925 # C
193 1 2 -0.1563 16.8706499529 13.2867532272 23.4092413118 # F
194 1 2 -0.1736 16.6343053020 13.4875475422 22.2731917221 # F
195 1 2 -0.1844 17.8325602009 12.3797287434 22.6534629765 # F
196 1 3 -0.2516 17.9843514874 15.0400752305 22.4598603293 # Oc
197 1 1 0.4557 18.1999828910 15.6363424657 21.1863702014 # C
198 1 2 -0.1368 18.7645859142 16.1059831647 20.3190549306 # F
199 1 2 -0.1393 18.7813512246 15.0065324820 21.3038036182 # F
200 1 1 0.1062 17.0857403667 16.2851238237 20.7962376075 # C
201 1 2 -0.1457 16.7183814452 16.5046443246 19.9783128936 # F
202 1 2 -0.1482 17.6781756501 17.1820699010 21.2180366872 # F
203 1 4 1.1345 16.4619490777 16.1058810880 21.7890599681 # S
204 1 5 -0.6371 15.9365988259 15.3983904496 22.3574095894 # Os
205 1 5 -0.6371 17.3176459314 15.6525999186 22.2373458837 # Os
206 1 5 -0.6371 16.0425615595 17.0381799735 22.5274221024 # Os
207 1 6 1.0000 16.9236819988 17.9906617874 23.4718283065 # Na
208 1 1 0.3275 16.9866565121 12.5671634929 22.4285709523 # C
209 1 2 -0.1576 16.9297411521 11.9549739846 23.4413808322 # F
210 1 2 -0.1576 17.4616919755 11.5137256686 21.8143804561 # F
211 1 1 0.3275 16.3148526764 13.1196047412 22.7389255428 # C
212 1 2 -0.1576 15.1434117394 12.9783384057 22.4917479144 # F
213 1 2 -0.1576 16.1900159261 14.4232827002 22.2428667185 # F
214 1 1 0.3275 17.1226508860 13.0044140952 24.1489040253 # C
215 1 2 -0.1576 16.4870395997 14.0886315965 24.1268705096 # F
216 1 2 -0.1576 16.8190697684 12.7524695167 25.0264960079 # F
217 1 1 0.3275 17.8921727622 12.1551144105 23.8837172332 # C
218 1 2 -0.1576 18.4711129449 11.6194038591 24.7600005327 # F
219 1 2 -0.1576 18.5526364418 12.4140530415 23.4724582949 # F
220 1 1 0.3275 17.6491155185 10.8195086490 23.0195533814 # C
221 1 2 -0.1576 18.0914601184 10.0032823291 23.5236743543 # F
222 1 2 -0.1576 18.4814328090 10.7863780386 21.9949353460 # F
223 1 1 0.3275 17.1067363014 10.7429260587 22.0567897223 # C
224 1 2 -0.1576 17.1156219044 11.6387433112 20.9738174872 # F
225 1 2 -0.1576 17.8220171372 10.6645940960 21.6592179011 # F
226 1 1 0.3275 16.5586900772 9.9619852862 21.8773225020 # C
227 1 2 -0.1576 17.1327739874 8.7248125394 22.3264082857 # F
228 1 2 -0.1576 15.9480823494 9.7381197232 22.5137791456 # F
229 1 1 0.3275 15.6996566252 10.6142544418 21.0384189875 # C
230 1 2 -0.1576 16.7458080609 10.2720131715 20.4476250806 # F
231 1 2 -0.1576 15.4695153210 11.3851376714 21.4987803264 # F
232 1 1 0.3275 14.6025764550 10.5783077400 20.3432186941 # C
233 1 2 -0.1576 14.0865914702 9.7767276059 19.6851382687 # F
234 1 2 -0.1576 13.6688469111 10.7314158066 20.7424670688 # F
235 1 1 0.3275 15.1801555199 11.0815078072 19.4061334713 # C
236 1 2 -0.1576 16.2135436343 10.2821474135 19.1457581541 # F
237 1 2 -0.1576 14.6875684317 11.1021357697 18.2049735353 # F
238 1 1 0.3275 15.7336432949 11.9266697033 19.5873340905 # C
239 1 2 -0.1576 14.8851823370 12.5727428517 20.2364570685 # F
240 1 2 -0.1576 16.8570744812 11.8319010837 19.9373578818 # F
241 1 1 0.3275 15.6316013541 12.8105358832 18.4160673081 # C
242 1 2 -0.1576 15.3363994013 13.3659744502 18.7613719296 # F
243 1 2 -0.1576 16.0839027694 13.7318056900 18.4482673637 # F
244 1 1 0.3275 15.7343525879 13.2892379901 17.5006365721 # C
245 1 2 -0.1576 16.9961557704 13.6998260402 17.5711446230 # F
246 1 2 -0.1576 15.0995616944 13.6735732651 17.5088521657 # F
247 1 1 0.3275 15.6956465243 13.1817354536 16.0802472661 # C
248 1 2 -0.1576 15.0415901332 13.5275206250 16.6456481654 # F
249 1 2 -0.1576 16.0737007635 13.7982391702 15.4903049095 # F
250 1 1 0.2465 15.9979910850 12.1763558349 15.9078980455 # C
251 1 2 -0.1336 16.3461912677 11.4041201372 14.8473159843 # F
252 1 2 -0.1336 16.8173386934 12.0840938695 16.6438308851 # F
253 1 1 0.1317 15.2481844881 12.2970263767 15.3126688242 # C
254 1 2 -0.1193 15.5917984183 12.5289280651 14.1862375547 # F
255 1 3 -0.3109 15.1237896103 13.6137664927 15.4272477737 # Oc
256 1 1 0.4954 14.9890524243 14.2795378435 16.2814558721 # C
257 1 2 -0.1280 14.1205912958 14.8355684881 16.4293429351 # F
258 1 2 -0.1559 15.8068929328 14.4051265672 16.3527120284 # F
259 1 1 0.0465 14.4030191102 13.6301262831 16.7344843248 # C
260 1 2 -0.1122 13.8081762865 13.9626634152 15.6402242276 # F
261 1 1 0.5842 14.6347130874 12.2583982632 17.2754826897 # C
262 1 2 -0.1563 13.9146120329 11.6554496393 17.9275025692 # F
263 1 2 -0.1736 15.2596156138 12.2038258414 18.3761129884 # F
264 1 2 -0.1844 15.4627516297 12.2214674954 17.1257255126 # F
265 1 3 -0.2516 13.5056902058 13.8207197287 17.2205545733 # Oc
266 1 1 0.4557 12.6285930612 14.1472821118 18.1429501202 # C
267 1 2 -0.1368 13.1147225910 13.3954985832 19.1506089659 # F
268 1 2 -0.1393 12.1154102402 15.1789208069 18.1440523674 # F
269 1 1 0.1062 11.8790977241 13.7528907091 17.3346263288 # C
270 1 2 -0.1457 11.4521918201 14.5338238144 17.5564428477 # F
271 1 2 -0.1482 11.6567249424 12.7143830558 17.6710549287 # F
272 1 4 1.1345 11.5835803553 13.3577011356 16.2590638583 # S
273 1 5 -0.6371 11.7033510240 13.7025129086 15.4306990928 # Os
274 1 5 -0.6371 11.6133755032 12.1944841189 15.5202288403 # Os
275 1 5 -0.6371 10.5114438525 13.4651624701 16.5002486003 # Os
276 1 6 1.0000 9.5152696940 12.8991337615 16.4993585571 # Na
277 1 1 0.3275 14.7660364520 11.9350222432 15.7768919825 # C
278 1 2 -0.1576 15.2229894402 10.7720255534 15.2665831499 # F
279 1 2 -0.1576 14.0317704523 13.1224251132 16.0600650365 # F
280 1 1 0.3275 13.7832876189 11.7923713850 16.9577139329 # C
281 1 2 -0.1576 13.6758777520 12.5976234955 17.4975931631 # F
282 1 2 -0.1576 14.0502742741 10.7436900204 17.3459963090 # F
283 1 1 0.3275 13.0298405540 11.6302912166 16.3512512649 # C
284 1 2 -0.1576 12.1682261521 11.2228912613 16.9150055277 # F
285 1 2 -0.1576 13.4119396502 11.4293896989 15.5532755190 # F
286 1 1 0.3275 12.4377958967 12.3512393491 16.2448068945 # C
287 1 2 -0.1576 11.8082582582 12.7918984011 16.8042688220 # F
288 1 2 -0.1576 12.8114201771 13.2590734643 15.4069707524 # F
289 1 1 0.3275 12.0570345244 11.5727850433 15.5399219459 # C
290 1 2 -0.1576 12.7436089116 10.6157545014 14.9584709965 # F
291 1 2 -0.1576 12.1039863224 12.3022157270 14.8443033466 # F
292 1 1 0.3275 11.4641094927 11.6894097159 16.4408981776 # C
293 1 2 -0.1576 10.7371984050 11.9391120546 16.9898878022 # F
294 1 2 -0.1576 11.6547483957 10.8179006295 16.3204058325 # F
295 1 1 0.3275 11.5145184500 11.4657255335 17.3619985397 # C
296 1 2 -0.1576 11.6224212785 10.5062048151 17.7545791536 # F
297 1 2 -0.1576 10.3382748311 10.9608309297 17.3377689781 # F
298 1 1 0.3275 12.5271076479 11.9150991655 17.5163085820 # C
299 1 2 -0.1576 13.0398827300 11.0772208744 18.2851874228 # F
300 1 2 -0.1576 12.8610737410 12.1967498624 17.0902850442 # F
301 1 1 0.3275 12.5560361037 12.4509698968 18.5351808365 # C
302 1 2 -0.1576 13.6279641869 12.6729322587 18.5040202324 # F
303 1 2 -0.1576 12.5206577281 12.1513909236 19.5349151279 # F
304 1 1 0.3275 11.5941796286 13.3466311577 18.5598136247 # C
305 1 2 -0.1576 12.3195942122 14.0777762921 18.4425770901 # F
306 1 2 -0.1576 10.9227822446 12.4389666786 18.1194166500 # F
307 1 1 0.3275 10.8769313443 14.0983531463 18.6167007668 # C
308 1 2 -0.1576 9.8021022861 14.4216041844 18.0213536947 # F
309 1 2 -0.1576 11.4706925557 14.7807902380 18.3115644464 # F
310 1 1 0.3275 9.7834930904 13.2752166630 19.0476521346 # C
311 1 2 -0.1576 8.7177473335 13.5653972034 19.8651742411 # F
312 1 2 -0.1576 9.6012071116 12.5893331714 18.3937290189 # F
313 1 1 0.3275 10.2617832403 12.9775608654 20.0281707578 # C
314 1 2 -0.1576 9.7555602931 12.0161320828 20.2313005964 # F
315 1 2 -0.1576 9.9930941040 13.7475238246 20.1536424489 # F
316 1 1 0.3275 10.9423337152 13.6614462585 20.5372956570 # C
317 1 2 -0.1576 10.9763084027 13.9769425390 19.3957675034 # F
318 1 2 -0.1576 11.8934627018 13.5789459113 21.2758084788 # F
319 1 1 0.2465 10.7116354834 14.4676021862 21.4227321227 # C
320 1 2 -0.1336 11.7972341084 14.5639915643 21.7309223744 # F
321 1 2 -0.1336 9.5393271605 14.4425657699 21.5506797557 # F
322 1 1 0.1317 10.5331419852 15.0320753667 21.5989755962 # C
323 1 2 -0.1193 9.5321851851 15.1568478056 21.5091148080 # F
324 1 3 -0.3109 11.4013952647 15.3448930734 20.7310228541 # Oc
325 1 1 0.4954 11.5847426929 14.9141093548 19.8701939374 # C
326 1 2 -0.1280 10.8471857070 14.4253569563 19.8416914980 # F
327 1 2 -0.1559 11.7411284144 13.7581737296 19.9165625309 # F
328 1 1 0.0465 11.7308342879 15.8109749999 19.3100589481 # C
329 1 2 -0.1122 12.1525590015 16.2371897378 19.9127141868 # F
330 1 1 0.5842 10.8895334234 16.2535993984 19.5000009261 # C
331 1 2 -0.1563 9.6363310470 15.5170682151 19.1139485947 # F
332 1 2 -0.1736 10.9677042223 15.2310830539 20.0309981279 # F
333 1 2 -0.1844 10.8155734261 16.1368677130 18.5409213798 # F
334 1 3 -0.2516 11.9986182826 15.9180607205 18.3728497522 # Oc
335 1 1 0.4557 12.6796612591 15.8610794594 17.7425870285 # C
336 1 2 -0.1368 13.3139004926 16.1982856369 18.6073818522 # F
337 1 2 -0.1393 12.5552835080 15.0980700122 16.8963724281 # F
338 1 1 0.1062 13.2964887674 16.4459839459 17.1435919734 # C
339 1 2 -0.1457 12.4259192861 16.8547417133 16.9978771606 # F
340 1 2 -0.1482 14.1545361007 16.2484418734 17.5167334579 # F
341 1 4 1.1345 13.9434444721 16.9872279220 16.2781566154 # S
342 1 5 -0.6371 13.7389746320 17.1460121666 15.5622080709 # Os
343 1 5 -0.6371 13.2890943222 17.7367242377 16.6416676174 # Os
344 1 5 -0.6371 14.5361348281 16.1891472737 15.8803617491 # Os
345 1 6 1.0000 13.5051291150 15.9027506843 15.3088776747 # Na
346 1 1 0.3275 10.8488666480 16.0730942765 22.4403688589 # C
347 1 2 -0.1576 11.7633075754 16.0830944582 23.3877559606 # F
348 1 2 -0.1576 11.4549296191 16.8649485723 22.2761568096 # F
349 1 1 0.3275 10.0403568992 15.8948491774 22.6826799557 # C
350 1 2 -0.1576 10.1278611197 15.7718230135 23.4608620428 # F
351 1 2 -0.1576 9.4382546358 16.7584059644 21.8913552460 # F
352 1 1 0.3275 9.8301247238 15.3162538263 23.3290888720 # C
353 1 2 -0.1576 8.9344580597 15.6402793060 24.0591462672 # F
354 1 2 -0.1576 10.7977030206 15.4090955428 23.8013808707 # F
355 1 1 0.3275 9.6572013165 14.2516781079 23.1352619394 # C
356 1 2 -0.1576 9.1286517525 14.2171668647 23.6613559026 # F
357 1 2 -0.1576 10.5520418235 14.3106267155 23.6512253709 # F
358 1 1 0.3275 9.1156073662 13.6578753092 22.4368151743 # C
359 1 2 -0.1576 9.2278363162 12.6261973030 23.5190613933 # F
360 1 2 -0.1576 8.0183155627 13.3950386853 22.7966824548 # F
361 1 1 0.3275 9.6465681923 13.7497527824 21.8060451896 # C
362 1 2 -0.1576 9.8979825441 13.2277608091 20.7940022130 # F
363 1 2 -0.1576 10.6592303321 13.4851171638 22.8583792153 # F
364 1 1 0.3275 9.0419118717 14.1663618131 20.9708327324 # C
365 1 2 -0.1576 8.3216772083 13.4575061225 21.2562764034 # F
366 1 2 -0.1576 9.9281263225 14.7382126761 20.5338016855 # F
367 1 1 0.3275 8.3305975770 14.7860793509 20.3610421318 # C
368 1 2 -0.1576 7.8168779146 15.9392811213 20.7432922348 # F
369 1 2 -0.1576 8.6678838227 15.4894628262 19.5864374879 # F
370 1 1 0.3275 7.6291398707 13.8892604668 20.1630040562 # C
371 1 2 -0.1576 8.0629010946 13.4082882114 19.3308051115 # F
372 1 2 -0.1576 7.3887830676 13.1011744509 20.3197555542 # F
373 1 1 0.3275 6.8078198594 14.4478447792 20.6461082831 # C
374 1 2 -0.1576 5.8948212028 13.8328522006 21.4338846602 # F
375 1 2 -0.1576 5.3683675742 14.4841686073 20.2625663108 # F
376 1 1 0.3275 6.4906848440 13.9866823636 19.4273956590 # C
377 1 2 -0.1576 6.4710915392 12.9890111877 19.1011545200 # F
378 1 2 -0.1576 5.6408419952 13.7315425114 19.2815425555 # F
379 1 1 0.3275 7.1103628189 14.6178054289 19.3500192909 # C
380 1 2 -0.1576 7.9189134250 14.4024967343 18.8697544310 # F
381 1 2 -0.1576 6.7679979042 15.0129594180 18.5183902097 # F
382 1 1 0.3275 7.2892472465 15.6606867169 19.8739506503 # C
383 1 2 -0.1576 7.1824982835 16.0788789485 18.4797922767 # F
384 1 2 -0.1576 6.1380473604 16.3205846149 19.6488639725 # F
385 1 1 0.3275 7.0592142429 16.2047303341 20.6976477315 # C
386 1 2 -0.1576 7.8101748733 15.6184552308 21.3735791512 # F
387 1 2 -0.1576 6.3959710291 17.1831903646 20.4204572062 # F
388 1 1 0.2465 6.3316470280 16.0511423393 21.1889971431 # C
389 1 2 -0.1336 5.8921133168 15.7795668075 20.4747733070 # F
390 1 2 -0.1336 5.3216126621 16.0294400974 21.8187615112 # F
391 1 1 0.1317 6.2658691927 16.4555936470 22.2413775606 # C
392 1 2 -0.1193 5.6648129070 17.1985688190 22.1585633566 # F
393 1 3 -0.3109 6.5856072253 16.3220743020 23.1821072559 # Oc
394 1 1 0.4954 5.7312390860 16.4914728655 24.4361153572 # C
395 1 2 -0.1280 6.2015352028 16.5470927140 25.3583497354 # F
396 1 2 -0.1559 4.6986060145 16.2666489749 24.2326913614 # F
397 1 1 0.0465 5.9416877472 15.7478053722 25.3350521637 # C
398 1 2 -0.1122 5.3076485989 16.0937913805 26.4936095825 # F
399 1 1 0.5842 5.8418518316 14.2158053875 25.5188475512 # C
400 1 2 -0.1563 7.0364461855 13.5713351085 25.5938395342 # F
401 1 2 -0.1736 5.2644384397 12.8700601505 25.3922235644 # F
402 1 2 -0.1844 5.9275041617 13.9190241543 26.8169220780 # F
403 1 3 -0.2516 7.1614275690 16.0029557556 25.1156157468 # Oc
404 1 1 0.4557 7.4475215927 15.7983634434 25.8012615220 # C
405 1 2 -0.1368 7.1659872082 15.5030552634 27.1160070716 # F
406 1 2 -0.1393 6.8838599389 16.3991251974 26.9622130128 # F
407 1 1 0.1062 7.4832081107 16.5143755367 25.7862035659 # C
408 1 2 -0.1457 8.4041697646 17.1667176370 24.8736062534 # F
409 1 2 -0.1482 8.1195616868 17.0426697602 26.4895357898 # F
410 1 4 1.1345 6.6306929487 17.3024772354 25.7284963305 # S
411 1 5 -0.6371 5.2263601043 16.9846429457 25.7833970905 # Os
412 1 5 -0.6371 6.7577420558 17.6176868666 27.3238474661 # Os
413 1 5 -0.6371 7.3348162536 17.7589248717 25.3749825187 # Os
414 1 6 1.0000 7.6357335712 18.3044440236 24.7252318371 # Na
415 1 1 0.3275 7.3224120640 17.0454315773 22.3314258437 # C
416 1 2 -0.1576 6.7462723027 17.7786134044 22.7943414420 # F
417 1 2 -0.1576 7.6843794015 16.9182440591 21.0959078223 # F
418 1 1 0.3275 7.8542455166 16.8338344756 22.8213861192 # C
419 1 2 -0.1576 8.5354978297 17.5792511187 22.8314995085 # F
420 1 2 -0.1576 7.8450860615 17.7401791680 23.8828380506 # F
421 1 1 0.3275 7.5152203164 15.7386507480 23.4157930864 # C
422 1 2 -0.1576 7.5921538932 15.0452641272 22.3331596667 # F
423 1 2 -0.1576 7.7100784169 16.6777007323 23.8763074761 # F
424 1 1 0.3275 7.1952674004 14.8072429990 24.0986610283 # C
425 1 2 -0.1576 7.2612899280 15.0069886189 25.0678305127 # F
426 1 2 -0.1576 7.6203668364 14.0952087601 23.7146232248 # F
427 1 1 0.3275 6.1689020945 14.8238072729 23.7060808054 # C
428 1 2 -0.1576 5.5504482094 14.2540079866 23.9346683005 # F
429 1 2 -0.1576 5.9523597425 14.4792806858 22.5622541316 # F
430 1 1 0.3275 6.4024621184 16.0258932897 24.1602584947 # C
431 1 2 -0.1576 5.7271007352 16.8558038312 23.5422711739 # F
432 1 2 -0.1576 5.8879118764 15.2068052762 24.7107005244 # F
433 1 1 0.3275 7.4921366291 15.8257177350 24.5294452240 # C
434 1 2 -0.1576 6.9259317453 14.7843777920 25.4039741987 # F
435 1 2 -0.1576 7.9426925511 15.2204109028 23.6543702446 # F
436 1 1 0.3275 8.6240505817 16.3358769599 24.4414836987 # C
437 1 2 -0.1576 8.7880069249 15.0364416833 24.1694046919 # F
438 1 2 -0.1576 8.5360225977 16.6997664117 23.3599504024 # F
439 1 1 0.3275 9.7093022991 16.8265595099 24.8003277571 # C
440 1 2 -0.1576 10.1508959925 16.5007172786 24.0724090340 # F
441 1 2 -0.1576 9.4654650768 17.9049040335 25.0525292014 # F
442 1 1 0.3275 10.8132662010 16.5634488610 24.7894266330 # C
443 1 2 -0.1576 11.5907468741 17.0471330654 25.4855488391 # F
444 1 2 -0.1576 10.7832655320 16.8526952039 23.5337236979 # F
445 1 1 0.3275 10.8310496114 15.5250222187 24.6458368927 # C
446 1 2 -0.1576 10.0932905068 15.8309869375 25.5136116562 # F
447 1 2 -0.1576 11.5189853186 14.5982866032 25.3189543079 # F
448 1 1 0.3275 10.2728628078 14.7618576450 23.9070259002 # C
449 1 2 -0.1576 9.1775745329 15.0604982123 23.0875328792 # F
450 1 2 -0.1576 11.2764093551 14.6242449600 23.5672780476 # F
451 1 1 0.3275 10.1828804177 13.5269702969 24.4021989457 # C
452 1 2 -0.1576 10.5131286461 12.4541929712 23.5609930315 # F
453 1 2 -0.1576 9.2950971559 14.0863813280 24.5468532007 # F
454 1 1 0.3275 9.9510764632 12.3174891042 25.2194108063 # C
455 1 2 -0.1576 9.0078738852 12.1599464958 25.0147380784 # F
456 1 2 -0.1576 10.6092736087 12.1028230016 25.7292195926 # F
457 1 1 0.2465 10.2800801872 11.1614925011 25.2062519700 # C
458 1 2 -0.1336 11.3026633654 11.2437130568 25.0317967882 # F
459 1 2 -0.1336 10.1869083777 10.3119492441 25.1710811289 # F
460 1 1 0.1317 9.4518755790 11.3395276886 24.7530950608 # C
461 1 2 -0.1193 9.1731985770 11.9717901661 24.3508263745 # F
462 1 3 -0.3109 8.9021805918 10.7814331788 23.8675274699 # Oc
463 1 1 0.4954 7.8769999774 10.7440964021 23.7677414997 # C
464 1 2 -0.1280 7.7282496587 11.5840580911 23.2081159569 # F
465 1 2 -0.1559 7.0117338956 11.2091994722 24.6785491942 # F
466 1 1 0.0465 7.6244388344 9.5858917942 23.4792937146 # C
467 1 2 -0.1122 7.9281289468 8.5994696010 23.0546995764 # F
468 1 1 0.5842 7.4658650897 9.8954009301 22.6589897250 # C
469 1 2 -0.1563 7.8912262254 8.8663362977 21.9752152430 # F
470 1 2 -0.1736 8.0127085098 11.1678145037 22.7098497702 # F
471 1 2 -0.1844 6.8867918134 10.5103080939 22.4989023407 # F
472 1 3 -0.2516 6.8581831939 9.6464259601 24.5103347658 # Oc
473 1 1 0.4557 7.3146921080 9.5582056152 25.3472167418 # C
474 1 2 -0.1368 8.1541634320 9.1722257526 26.0522619521 # F
475 1 2 -0.1393 6.6191960148 10.5497929669 25.5607611367 # F
476 1 1 0.1062 6.5394085600 8.3499191976 25.9695947332 # C
477 1 2 -0.1457 6.3895951136 7.2648057327 25.4782202164 # F
478 1 2 -0.1482 5.7129677454 8.3727838979 26.2025417186 # F
479 1 4 1.1345 7.1414889152 7.7094180183 26.3455269317 # S
480 1 5 -0.6371 6.7662268735 6.9574682272 27.2755184399 # Os