LAMMPS output created by EMC v9.4.4, build Jul 30 2020 09:28:04

        7364  atoms
6447 bonds
10220 angles
13377 dihedrals

           8  atom types
           7  bond types
          12  angle types
          14  dihedral types

             0    41.91517271  xlo xhi
             0    41.91517271  ylo yhi
             0    41.91517271  zlo zhi

Masses

       1   12.01115  # C
       2   18.99840  # F
       3   15.99940  # GFOc
       4   32.06400  # GGS
       5   15.99940  # GOs      
	   6    22.990 	 # Na
       7    1.00797  # WH
       8    15.99940 # WO

Atoms

1 1 1 0.3275 31.8989170706 14.0176215301 11.8411150016 # C
2 1 2 -0.1576 31.7655857565 14.9152212030 11.1776658352 # F
3 1 2 -0.1576 32.8155087560 13.6290479109 11.7257934690 # F
4 1 1 0.3275 31.4228392793 13.1946796933 11.9326024578 # C
5 1 2 -0.1576 31.8028333262 12.2938418042 12.3242406202 # F
6 1 2 -0.1576 31.3753006000 13.9472874887 12.4102238298 # F
7 1 1 0.3275 30.8837325384 12.9763668287 11.3262562909 # C
8 1 2 -0.1576 30.0064581257 12.8702214624 10.5507884188 # F
9 1 2 -0.1576 30.2104095577 13.9076182972 11.7765860321 # F
10 1 1 0.3275 31.3432584099 13.1631738187 10.3647870682 # C
11 1 2 -0.1576 31.7113821117 12.5661048211 10.0977356999 # F
12 1 2 -0.1576 30.4731138669 13.6282105285 10.2811605916 # F
13 1 1 0.3275 31.7881014512 13.4950313429 9.7068901425 # C
14 1 2 -0.1576 32.3429785817 12.6597541824 9.1874021500 # F
15 1 2 -0.1576 31.7076448884 14.4816027832 10.2350652315 # F
16 1 1 0.3275 32.1523327051 13.3054113935 8.8211671929 # C
17 1 2 -0.1576 31.7079619874 14.1095919574 7.8057961366 # F
18 1 2 -0.1576 31.3361488312 12.2376186701 8.9523021588 # F
19 1 1 0.3275 33.0236865872 13.0044495617 8.2760969745 # C
20 1 2 -0.1576 33.6471117660 11.7687250910 8.5099729366 # F
21 1 2 -0.1576 32.9256718616 13.1682779389 6.7463746790 # F
22 1 1 0.3275 33.6353492653 13.8686645358 8.5080332605 # C
23 1 2 -0.1576 32.7002408409 14.6777813198 7.5149306554 # F
24 1 2 -0.1576 34.7680394229 13.8871790684 8.2242186840 # F
25 1 1 0.3275 34.0043387439 13.9314671188 8.7947989706 # C
26 1 2 -0.1576 34.6279409462 12.9555718334 9.0723021237 # F
27 1 2 -0.1576 34.4354697570 14.6761380746 8.0325523667 # F
28 1 1 0.3275 33.8289550471 14.6800041632 9.3922928351 # C
29 1 2 -0.1576 34.7736546169 15.2738187897 9.8510510466 # F
30 1 2 -0.1576 33.7034635902 14.1707958847 10.5243341265 # F
31 1 1 0.3275 33.1030438786 15.0985409946 9.6739695521 # C
32 1 2 -0.1576 33.3589849772 16.0685911443 10.5725085945 # F
33 1 2 -0.1576 32.7406381612 14.5098412630 10.7636898898 # F
34 1 1 0.3275 32.1906731728 15.1827994095 8.3906421627 # C
35 1 2 -0.1576 31.5274170727 15.6002896442 7.6985807624 # F
36 1 2 -0.1576 32.7010422776 14.4689834263 8.1703278207 # F
37 1 1 0.3275 31.3113184731 14.5371239468 8.4987324922 # C
38 1 2 -0.1576 31.1858132970 13.5898645042 7.8369875494 # F
39 1 2 -0.1576 30.6375520939 14.3140472014 9.3381536147 # F
40 1 1 0.3275 30.5643042373 14.7966397104 7.5806201169 # C
41 1 2 -0.1576 29.5669697031 14.3508552807 7.7699260839 # F
42 1 2 -0.1576 30.4713271481 15.2102133102 8.2976237804 # F
43 1 1 0.2465 30.2603977443 15.3984373722 6.5443804492 # C
44 1 2 -0.1336 30.7071790264 16.2366958267 6.9252380962 # F
45 1 2 -0.1336 29.3505621447 15.0538356189 6.7353096748 # F
46 1 1 0.1317 30.0169522645 15.4328097174 5.6118334371 # C
47 1 2 -0.1193 31.2382537090 15.8914797684 5.5195943273 # F
48 1 3 -0.3109 28.6400167893 16.3523148413 5.5562132530 # GFOc
49 1 1 0.4954 27.6723064572 16.0199677872 5.2763511757 # C
50 1 2 -0.1280 28.0164752331 16.9317206000 4.6881376824 # F
51 1 2 -0.1559 27.1230386447 16.9544489362 5.1584256446 # F
52 1 1 0.0465 27.4206161586 15.0240657250 5.9791275325 # C
53 1 2 -0.1122 28.4315905296 14.4140903964 6.0649365351 # F
54 1 1 0.5842 27.0328679142 15.8296981380 6.7914758198 # C
55 1 2 -0.1563 26.7429863947 14.9977705446 7.2154943205 # F
56 1 2 -0.1736 27.5447584305 17.0190061328 7.2221621194 # F
57 1 2 -0.1844 26.1706599413 16.5292639281 6.6417492589 # F
58 1 3 -0.2516 26.3854291597 14.5400322638 6.5993443162 # GFOc
59 1 1 0.4557 26.0919190395 14.3428809778 7.3377126744 # C
60 1 2 -0.1368 25.7935950352 15.2372323791 7.8407011777 # F
61 1 2 -0.1393 26.7461929197 13.2920696884 7.5591877695 # F
62 1 1 0.1062 25.3754427022 14.8914792971 8.0855452991 # C
63 1 2 -0.1457 25.1035436031 15.6940163739 7.5051542739 # F
64 1 2 -0.1482 24.3074357924 14.9534061670 7.1977911320 # F
65 1 4 1.1345 25.3515466792 14.5206710145 9.2540388408 # GGS
66 1 5 -0.6371 25.2114308197 15.3016868473 10.0674815933 # GOs
67 1 5 -0.6371 24.9829628803 13.5648743754 9.2290028223 # GOs
68 1 5 -0.6371 26.1192851306 14.2687396204 9.7204741523 # GOs
69 1 6 1.0000 25.7830609293 13.3428902273 10.0912091559 # Na
70 1 1 0.3275 30.0640557594 13.9898793543 5.3194769265 # C
71 1 2 -0.1576 29.8305624148 14.4797109616 6.0555957470 # F
72 1 2 -0.1576 30.2291056566 13.8838871863 4.7220283454 # F
73 1 1 0.3275 30.4118195550 12.9158244708 5.7566298918 # C
74 1 2 -0.1576 29.6375657238 12.8036030386 5.7588230347 # F
75 1 2 -0.1576 31.3123292517 12.9440674292 4.1954275700 # F
76 1 1 0.3275 30.9559638511 12.0688426288 6.2097504603 # C
77 1 2 -0.1576 30.0645305252 11.5860059122 6.5532553142 # F
78 1 2 -0.1576 31.5943292531 11.9019231853 5.1204700794 # F
79 1 1 0.3275 31.6796201426 11.9758270677 7.2000024377 # C
80 1 2 -0.1576 32.5912415727 11.4769627718 6.8977463321 # F
81 1 2 -0.1576 32.0219776761 12.6384593142 7.5484001914 # F
82 1 1 0.3275 30.8080102261 11.5479852612 7.6167716295 # C
83 1 2 -0.1576 31.5421429143 11.0502850827 6.8593042769 # F
84 1 2 -0.1576 30.7992452335 10.8579858375 8.8193498067 # F
85 1 1 0.3275 29.7062043470 12.0232627052 7.4798467364 # C
86 1 2 -0.1576 29.3269614815 11.8242595586 8.2873257776 # F
87 1 2 -0.1576 29.6306367835 12.9439009846 7.2838549045 # F
88 1 1 0.3275 28.9077750673 11.8799115099 6.8635005900 # C
89 1 2 -0.1576 28.8728204346 12.1751837038 5.8507184333 # F
90 1 2 -0.1576 28.6775403157 11.0682412212 7.2843408799 # F
91 1 1 0.3275 28.0833227622 12.0922494141 6.9260158438 # C
92 1 2 -0.1576 27.3566611039 11.0582108077 7.0180978827 # F
93 1 2 -0.1576 28.6678383827 13.0001642620 6.3782021417 # F
94 1 1 0.3275 27.0881969814 11.6554119158 5.9244699107 # C
95 1 2 -0.1576 27.6383121603 10.6474523515 5.9414645565 # F
96 1 2 -0.1576 26.7879839246 12.5179585800 5.1563340102 # F
97 1 1 0.3275 25.9978271673 11.9805171747 6.6011789971 # C
98 1 2 -0.1576 25.5095471698 12.4087366425 5.7669163446 # F
99 1 2 -0.1576 25.4726225614 11.9738292576 7.8186241588 # F
100 1 1 0.3275 26.2405836022 10.3132103296 6.6400615142 # C
101 1 2 -0.1576 24.7560138328 10.5201065506 6.1563461372 # F
102 1 2 -0.1576 27.2712311976 9.8294154748 6.9650901102 # F
103 1 1 0.3275 26.6478035954 9.7772652067 5.6787597802 # C
104 1 2 -0.1576 26.8271330581 9.0390597000 4.6283633343 # F
105 1 2 -0.1576 28.1769272293 9.5817755726 6.1022704812 # F
106 1 1 0.3275 26.3119062092 10.2715184056 4.8127510198 # C
107 1 2 -0.1576 25.8314324416 10.0898930242 3.5098005883 # F
108 1 2 -0.1576 26.8500428637 11.0016433993 4.3611995382 # F
109 1 1 0.3275 25.2260966360 10.6476935703 5.1807775483 # C
110 1 2 -0.1576 24.2543273496 9.5137676381 4.7392073433 # F
111 1 2 -0.1576 24.4834900871 11.1883336415 4.6664622506 # F
112 1 1 0.2465 25.3171259777 10.9148807257 6.6665708740 # C
113 1 2 -0.1336 25.1300298700 10.9817647901 7.5050911725 # F
114 1 2 -0.1336 24.2239321224 11.3775600578 7.1650398408 # F
115 1 1 0.1317 26.4341094979 11.0192197409 6.2746837570 # C
116 1 2 -0.1193 25.9227060464 11.3844077893 5.4721632650 # F
117 1 3 -0.3109 26.4857806357 11.1763249471 7.5675058595 # GFOc
118 1 1 0.4954 26.5087414038 12.2050984352 7.7942593673 # C
119 1 2 -0.1280 27.1064205216 12.6312234492 6.8840750193 # F
120 1 2 -0.1559 26.7612955382 12.0510209444 9.2558810454 # F
121 1 1 0.0465 25.8112159771 12.5322113682 7.4098654831 # C
122 1 2 -0.1122 26.1602040342 12.6689513304 6.9405754460 # F
123 1 1 0.5842 24.9347166255 13.0218804613 8.3139955947 # C
124 1 2 -0.1563 24.7266181153 13.7267234579 8.3728206770 # F
125 1 2 -0.1736 25.7272799813 13.2756480577 9.0985226829 # F
126 1 2 -0.1844 24.6377751711 12.6014714035 8.7417511514 # F
127 1 3 -0.2516 24.9692493441 11.8014777962 7.0677698932 # GFOc
128 1 1 0.4557 23.9811040863 11.6461262554 6.5119582099 # C
129 1 2 -0.1368 23.9092272765 12.0543345092 5.4396127942 # F
130 1 2 -0.1393 23.4378858776 12.5360912387 6.5163215628 # F
131 1 1 0.1062 23.1308761305 10.8379836650 6.9739801296 # C
132 1 2 -0.1457 23.2316188295 10.7650015704 8.0199559372 # F
133 1 2 -0.1482 23.0539521834 9.9001019860 6.3992853541 # F
134 1 4 1.1345 21.8032892184 10.9787720504 7.0195850418 # GGS
135 1 5 -0.6371 22.1463266887 9.5892874245 7.8726619183 # GOs
136 1 5 -0.6371 21.4493327793 11.8669428814 7.5169504658 # GOs
137 1 5 -0.6371 21.4685454427 10.9234918066 6.2128170916 # GOs
138 1 6 1.0000 20.6097817215 11.8040522493 5.9670178167 # Na
139 1 1 0.3275 27.2274751281 10.4769756536 6.0633076590 # C
140 1 2 -0.1576 27.3004085205 9.4884059881 6.2591057678 # F
141 1 2 -0.1576 27.5077867435 10.5330355674 5.0420252119 # F
142 1 1 0.3275 27.7433271245 10.3278804388 7.0321804754 # C
143 1 2 -0.1576 28.6872226263 10.0342331812 7.6359502153 # F
144 1 2 -0.1576 26.8942189725 9.7620593198 7.6854151962 # F
145 1 1 0.3275 27.6310400870 11.5450831903 7.3923793959 # C
146 1 2 -0.1576 26.8366468363 11.8706548833 7.0655460232 # F
147 1 2 -0.1576 27.6391374231 11.5526903187 8.1484709033 # F
148 1 1 0.3275 27.8094317710 12.9416208288 7.3843953578 # C
149 1 2 -0.1576 28.8392112353 12.8035296091 6.9756389280 # F
150 1 2 -0.1576 27.8984825001 13.7687105166 6.6628287349 # F
151 1 1 0.3275 27.0890247022 12.8964998888 8.4346587061 # C
152 1 2 -0.1576 28.1608327773 12.8385099927 8.7398236981 # F
153 1 2 -0.1576 26.6424008960 13.6306333912 8.9541112688 # F
154 1 1 0.3275 26.1827361606 12.2445495848 8.5598769376 # C
155 1 2 -0.1576 25.0613218947 11.7277114341 8.6954752216 # F
156 1 2 -0.1576 26.3980765771 11.4936434898 8.1162707597 # F
157 1 1 0.3275 26.0110578147 12.3169317460 9.7972429081 # C
158 1 2 -0.1576 25.1182756074 11.7298436698 10.5275902778 # F
159 1 2 -0.1576 25.2796571924 11.7972471689 9.6700528102 # F
160 1 1 0.3275 26.7902955291 13.0344345574 10.3274969909 # C
161 1 2 -0.1576 26.2525651152 13.8462490117 11.1360032833 # F
162 1 2 -0.1576 27.2318351255 13.7364551600 9.8643547780 # F
163 1 1 0.3275 27.0486220236 12.6735817749 10.9284626435 # C
164 1 2 -0.1576 26.4997183530 12.0909111745 10.5079520938 # F
165 1 2 -0.1576 27.7954484401 12.3771301212 11.0820361175 # F
166 1 1 0.3275 26.2166233363 13.1350532387 11.9091137404 # C
167 1 2 -0.1576 26.6929523550 13.4348713616 12.5246462847 # F
168 1 2 -0.1576 25.6854104043 13.7418513882 12.1729488202 # F
169 1 1 0.3275 25.3099282764 12.6515805218 12.5335660274 # C
170 1 2 -0.1576 26.0713722262 11.7123950267 12.5098721534 # F
171 1 2 -0.1576 24.8583625699 13.3273210166 11.7785863002 # F
172 1 1 0.3275 24.8157648942 13.2976270636 13.2885697556 # C
173 1 2 -0.1576 23.5907724507 14.2285694632 13.1090045798 # F
174 1 2 -0.1576 24.4690959292 12.6382359019 13.9775153737 # F
175 1 1 0.3275 25.6030183650 14.0807064751 14.0534886201 # C
176 1 2 -0.1576 25.9891919609 14.1636765979 15.1854829873 # F
177 1 2 -0.1576 26.1219042298 13.8042174854 13.2900902126 # F
178 1 1 0.3275 26.2257342214 14.9744724725 14.2811345645 # C
179 1 2 -0.1576 26.6024944189 15.5476712512 15.1055955561 # F
180 1 2 -0.1576 26.5736109078 15.0604005991 13.5398650472 # F
181 1 1 0.2465 25.2862036316 15.4489170226 13.9198722301 # C
182 1 2 -0.1336 24.8446893567 15.7159873463 14.7415857171 # F
183 1 2 -0.1336 25.6562700461 14.6152467683 13.4270679013 # F
184 1 1 0.1317 24.6798977567 16.2631208284 13.5602509895 # C
185 1 2 -0.1193 24.9503936576 16.8420789377 14.1985245703 # F
186 1 3 -0.3109 23.7682996690 16.4536258018 13.4127071345 # GFOc
187 1 1 0.4954 22.5679614803 16.5747579715 13.3759078404 # C
188 1 2 -0.1280 22.2725179287 15.6356926290 12.9549270615 # F
189 1 2 -0.1559 21.6838209463 16.8877339600 13.2297857287 # F
190 1 1 0.0465 22.5708930892 17.6084588306 12.9387687603 # C
191 1 2 -0.1122 22.9305335245 17.1940071854 11.9503988477 # F
192 1 1 0.5842 22.2295959520 17.5802896055 13.8800088564 # C
193 1 2 -0.1563 21.2310504817 18.0619071149 13.9638247839 # F
194 1 2 -0.1736 22.1292069952 16.7494292857 13.8814725548 # F
195 1 2 -0.1844 22.0016829026 18.6948425608 14.7650048430 # F
196 1 3 -0.2516 23.4941707102 18.1390309287 13.4047570464 # GFOc
197 1 1 0.4557 23.3953710922 19.2434891318 13.3817615811 # C
198 1 2 -0.1368 22.9271315875 19.2021172912 12.6054961164 # F
199 1 2 -0.1393 22.7520023720 19.5475447842 14.3334186304 # F
200 1 1 0.1062 24.2383717167 19.3818932249 13.2604289641 # C
201 1 2 -0.1457 24.6164143931 18.7657674046 14.2632677140 # F
202 1 2 -0.1482 24.0816417697 19.1910562888 12.0802487601 # F
203 1 4 1.1345 25.1493516613 20.3997445185 13.3547474253 # GGS
204 1 5 -0.6371 25.5994431462 20.4850989153 12.5286462282 # GOs
205 1 5 -0.6371 25.1121332131 19.7377892000 14.6253218461 # GOs
206 1 5 -0.6371 26.2022169434 20.9665077992 13.6630121347 # GOs
207 1 6 1.0000 26.6578670484 21.4281543611 13.3967672225 # Na
208 1 1 0.3275 24.3316784071 16.3540991102 12.6800122365 # C
209 1 2 -0.1576 23.9652869080 17.3338934127 12.9542348343 # F
210 1 2 -0.1576 23.4423724280 15.8668323076 12.7943882243 # F
211 1 1 0.3275 25.1786901976 15.8805890928 12.1065345621 # C
212 1 2 -0.1576 25.2845939341 16.1917342370 11.0916223135 # F
213 1 2 -0.1576 25.8264863898 16.9856212833 12.1843920648 # F
214 1 1 0.3275 25.4081209248 15.1181479891 12.5446948600 # C
215 1 2 -0.1576 24.1859588916 14.0006258272 12.0934713619 # F
216 1 2 -0.1576 26.2089261890 14.5309365180 12.5291251707 # F
217 1 1 0.3275 26.5672328350 15.8277277011 12.4279663554 # C
218 1 2 -0.1576 26.6589786784 16.8050313193 12.3027725376 # F
219 1 2 -0.1576 27.1696603494 15.7094493705 13.7110383436 # F
220 1 1 0.3275 27.0229725511 15.2533748207 11.1562997265 # C
221 1 2 -0.1576 27.9617367843 15.9410954422 11.0935194716 # F
222 1 2 -0.1576 26.5506441203 14.2749567295 10.3635506521 # F
223 1 1 0.3275 27.4906035467 14.8337607274 11.9435233628 # C
224 1 2 -0.1576 27.1673947666 13.9312956319 11.7203164835 # F
225 1 2 -0.1576 27.9016692315 15.1214647438 12.7362222479 # F
226 1 1 0.3275 28.2944220809 13.9349379207 12.3882149626 # C
227 1 2 -0.1576 29.2128597765 14.5491844100 12.2213962258 # F
228 1 2 -0.1576 28.1126329099 12.7534990050 11.9219458459 # F
229 1 1 0.3275 27.8774808081 13.3260882795 13.1739737514 # C
230 1 2 -0.1576 27.6183668533 13.6825344785 14.0325239599 # F
231 1 2 -0.1576 26.9089147657 13.4946695286 13.5538635970 # F
232 1 1 0.3275 28.7650131621 12.3061811530 13.2197075465 # C
233 1 2 -0.1576 28.7828060784 11.6735094903 12.2364257535 # F
234 1 2 -0.1576 29.3735455666 13.3521978796 13.8380866707 # F
235 1 1 0.3275 28.7250327756 11.8726075572 14.2280646408 # C
236 1 2 -0.1576 28.6645244727 11.5870768753 15.4825146499 # F
237 1 2 -0.1576 27.9526375674 12.1508000073 14.1756797629 # F
238 1 1 0.3275 29.2631907835 11.3673463045 14.1048661816 # C
239 1 2 -0.1576 28.6388275178 11.4998305590 13.0525482861 # F
240 1 2 -0.1576 28.3868386496 10.8019195645 14.4509120026 # F
241 1 1 0.3275 30.1015889590 11.1305600078 14.2445099966 # C
242 1 2 -0.1576 30.7025154474 11.4801233765 13.6020593982 # F
243 1 2 -0.1576 29.8100300194 11.3018706632 15.1136816835 # F
244 1 1 0.3275 30.0096353078 10.1618946132 13.7392191714 # C
245 1 2 -0.1576 29.3140820203 9.3536030485 14.0212000622 # F
246 1 2 -0.1576 29.6909966497 10.7496260884 12.3063878844 # F
247 1 1 0.3275 30.7291408594 9.4320036640 13.4426142683 # C
248 1 2 -0.1576 31.5677874579 9.2608067051 13.9677122309 # F
249 1 2 -0.1576 30.4843916828 8.7885931044 13.2643932063 # F
250 1 1 0.2465 31.3322975023 9.4647915047 12.5205811463 # C
251 1 2 -0.1336 30.9529643848 10.3033741279 12.6495385846 # F
252 1 2 -0.1336 31.7453497768 9.7965809331 11.6962632806 # F
253 1 1 0.1317 32.2275898017 8.8979437124 12.7531914468 # C
254 1 2 -0.1193 32.8155540690 9.4882430988 11.7892305546 # F
255 1 3 -0.3109 31.7358139718 7.8015033135 13.0655156608 # GFOc
256 1 1 0.4954 30.9150219030 7.1241538503 13.3330467532 # C
257 1 2 -0.1280 30.8386887838 7.8745982675 13.1027088281 # F
258 1 2 -0.1559 29.9100582527 6.9939296806 13.2856756312 # F
259 1 1 0.0465 31.1386923363 6.3879558736 13.1004485782 # C
260 1 2 -0.1122 30.0744297914 6.1324550110 12.5490598435 # F
261 1 1 0.5842 31.8678545483 5.7361086973 12.7069464215 # C
262 1 2 -0.1563 32.0693798073 4.7062182328 13.2256373306 # F
263 1 2 -0.1736 32.6683040380 5.4865877412 13.4749252345 # F
264 1 2 -0.1844 32.7224442928 6.2143164993 11.9827979244 # F
265 1 3 -0.2516 31.2961590780 5.9904538101 14.0751162780 # GFOc
266 1 1 0.4557 31.0923061428 4.8233568906 14.2630343036 # C
267 1 2 -0.1368 31.3355164260 4.8772857985 13.5751698267 # F
268 1 2 -0.1393 31.9602997013 4.4576533058 14.4592934281 # F
269 1 1 0.1062 30.1076875627 4.8231319779 14.3164251497 # C
270 1 2 -0.1457 30.0882805937 4.1724578643 15.0994185860 # F
271 1 2 -0.1482 29.7191607749 4.2799974649 13.8580735200 # F
272 1 4 1.1345 29.7334577919 6.1395884402 14.8938007551 # GGS
273 1 5 -0.6371 29.9762234744 6.8771574861 14.4328440136 # GOs
274 1 5 -0.6371 29.4350647062 5.2040093219 15.2244462901 # GOs
275 1 5 -0.6371 29.5243529530 6.3434182601 15.6172941235 # GOs
276 1 6 1.0000 29.3990427829 7.1262529905 16.5243261214 # Na
277 1 1 0.3275 33.0081790006 9.1550681559 13.5921937845 # C
278 1 2 -0.1576 33.1564456802 10.4634973093 13.4992089247 # F
279 1 2 -0.1576 32.6689992079 9.9333341396 14.3845164950 # F
280 1 1 0.3275 33.1240691313 8.0997489433 13.0293580129 # C
281 1 2 -0.1576 33.1377440665 9.0723901026 12.2879411370 # F
282 1 2 -0.1576 33.6005655726 7.4421819077 13.8454297833 # F
283 1 1 0.3275 32.4722835101 7.0844856380 13.0588841871 # C
284 1 2 -0.1576 33.0696286111 6.6062571629 12.7933883493 # F
285 1 2 -0.1576 32.0155138993 6.8171342339 13.6644819015 # F
286 1 1 0.3275 31.6771020852 7.1726915380 11.6976416325 # C
287 1 2 -0.1576 32.1605314560 6.0334180987 10.8851764742 # F
288 1 2 -0.1576 32.0843030203 7.3964143881 10.6556786859 # F
289 1 1 0.3275 30.4974147600 8.0125874202 11.4825595798 # C
290 1 2 -0.1576 30.6260048784 9.2478139751 11.2776568268 # F
291 1 2 -0.1576 29.8857045908 8.1991132104 10.4919411680 # F
292 1 1 0.3275 29.4661554349 7.6000680921 12.2103739056 # C
293 1 2 -0.1576 29.1903782738 6.3781517327 12.3270437749 # F
294 1 2 -0.1576 28.4722714081 6.9966218802 11.8586344706 # F
295 1 1 0.3275 29.0786068660 8.5466857178 12.3241612384 # C
296 1 2 -0.1576 28.6951991351 8.5191342754 11.5476120156 # F
297 1 2 -0.1576 30.0622488449 8.7934632764 12.3593151942 # F
298 1 1 0.3275 28.6852248952 9.5503128615 13.1147111919 # C
299 1 2 -0.1576 28.5219789747 10.0938472629 13.9065598425 # F
300 1 2 -0.1576 29.7341841828 9.7629728820 12.5883221413 # F
301 1 1 0.3275 27.5045008514 9.5628713299 13.1547821221 # C
302 1 2 -0.1576 27.2707605178 8.8881071986 13.6852431088 # F
303 1 2 -0.1576 27.0652050060 8.7392860546 12.1337677231 # F
304 1 1 0.3275 26.6847999649 10.2351637407 13.8539819479 # C
305 1 2 -0.1576 26.6770782796 10.8485681184 12.8299322739 # F
306 1 2 -0.1576 26.8977309179 10.9120687464 14.6181495767 # F
307 1 1 0.3275 25.7473567659 9.9471715310 13.9211432568 # C
308 1 2 -0.1576 25.4111638556 8.8644967978 13.2317390643 # F
309 1 2 -0.1576 24.7646783099 9.6111727312 14.1430145330 # F
310 1 1 0.3275 25.4753478921 10.6682878740 14.5819570257 # C
311 1 2 -0.1576 25.9760179679 11.4798228201 14.2204987576 # F
312 1 2 -0.1576 26.2795230503 10.8756346911 15.0069839535 # F
313 1 1 0.3275 24.6850380594 10.4719363889 14.6801971147 # C
314 1 2 -0.1576 24.2845812671 10.7635117041 13.6792151274 # F
315 1 2 -0.1576 24.5139165982 9.5706219298 15.3003087781 # F
316 1 1 0.3275 24.4635556567 11.3617121799 15.0918913579 # C
317 1 2 -0.1576 25.2487868091 11.6876147189 15.8623175275 # F
318 1 2 -0.1576 24.5772482062 12.6693428700 14.7796300985 # F
319 1 1 0.2465 23.4653562960 11.5007167415 14.4023658888 # C
320 1 2 -0.1336 23.1985966525 10.6831023169 13.7165336164 # F
321 1 2 -0.1336 23.2435921499 12.4321825712 13.9701579310 # F
322 1 1 0.1317 22.9972862787 11.8691264115 15.1392581784 # C
323 1 2 -0.1193 21.8110858995 11.7255613491 15.3337727225 # F
324 1 3 -0.3109 22.6845429931 12.6000920262 14.1882293336 # GFOc
325 1 1 0.4954 22.3332914260 12.5691793488 13.0653133594 # C
326 1 2 -0.1280 21.9592897839 11.7978811630 12.4576916903 # F
327 1 2 -0.1559 23.1689094837 12.8370878591 12.7644618279 # F
328 1 1 0.0465 21.7631967233 13.6217313274 12.5946908587 # C
329 1 2 -0.1122 22.6802333501 13.8717570013 12.5493887354 # F
330 1 1 0.5842 21.8791991142 13.6533739463 11.3362871642 # C
331 1 2 -0.1563 22.6760744415 14.1128535950 10.9879086540 # F
332 1 2 -0.1736 21.6211756670 12.7861252454 11.3453117832 # F
333 1 2 -0.1844 21.3221936623 14.1864127544 10.3386051779 # F
334 1 3 -0.2516 21.0750709852 14.4065745569 12.7482411906 # GFOc
335 1 1 0.4557 20.1688510449 14.9565374993 13.2692535729 # C
336 1 2 -0.1368 20.2482243831 15.8099446268 12.6922959795 # F
337 1 2 -0.1393 19.1896099932 14.0680945402 12.9218160536 # F
338 1 1 0.1062 19.9089184849 15.4374418618 14.1486663372 # C
339 1 2 -0.1457 20.5801131136 16.0901246322 14.6168480842 # F
340 1 2 -0.1482 20.1521660612 14.2314915105 14.3866991313 # F
341 1 4 1.1345 19.2218798564 16.0114164318 14.0734784314 # GGS
342 1 5 -0.6371 20.0133825950 16.8838971002 14.0576367590 # GOs
343 1 5 -0.6371 18.6205156610 16.0361666032 14.8632445849 # GOs
344 1 5 -0.6371 17.7916861635 16.2436899122 13.6787973740 # GOs
345 1 6 1.0000 16.9245628792 16.0249381941 13.9914098712 # Na
346 1 1 0.3275 23.7644612946 11.6247055806 16.1256861637 # C
347 1 2 -0.1576 24.1946738261 12.7217341789 16.2416483952 # F
348 1 2 -0.1576 24.4245517678 10.9529516702 15.8334290081 # F
349 1 1 0.3275 23.3697519123 10.7454235604 16.3489829513 # C
350 1 2 -0.1576 23.5197254431 10.6035372612 17.3937428863 # F
351 1 2 -0.1576 22.7825688550 11.1502068212 15.9510423518 # F
352 1 1 0.3275 23.5407621804 9.6862737265 16.0552745276 # C
353 1 2 -0.1576 23.2076610605 9.5872239421 15.2259937059 # F
354 1 2 -0.1576 24.7309311668 9.3357726118 15.7114583260 # F
355 1 1 0.3275 22.9591227215 8.6086052153 16.7191576500 # C
356 1 2 -0.1576 22.5887624221 8.6245237350 17.5360549526 # F
357 1 2 -0.1576 23.6400893810 7.9230510897 16.7148599392 # F
358 1 1 0.3275 22.1736394963 8.3019566543 16.4348898053 # C
359 1 2 -0.1576 21.7642292889 8.6118987415 15.4954265006 # F
360 1 2 -0.1576 20.9558324529 8.4732807904 16.5966872952 # F
361 1 1 0.3275 22.3786437165 7.7421526050 15.4564807558 # C
362 1 2 -0.1576 21.7936166359 6.6619167977 15.8944027827 # F
363 1 2 -0.1576 23.5274440130 7.8832251715 15.2168428057 # F
364 1 1 0.3275 21.7440820703 8.1022583669 14.6270827469 # C
365 1 2 -0.1576 20.5779650440 8.8680081287 14.2444683833 # F
366 1 2 -0.1576 21.3061730203 7.0998208746 14.1068823279 # F
367 1 1 0.3275 23.1988986746 8.7035056113 14.2576534506 # C
368 1 2 -0.1576 23.8902883988 9.3183408502 14.5226489251 # F
369 1 2 -0.1576 23.1269648453 7.8203039627 14.3365567161 # F
370 1 1 0.3275 23.2746900008 8.9132577398 13.5146569375 # C
371 1 2 -0.1576 24.2817972256 8.5893579582 13.4365573328 # F
372 1 2 -0.1576 22.9825656038 9.9361379588 13.1386114682 # F
373 1 1 0.3275 22.7436004249 7.9679870114 13.4285116062 # C
374 1 2 -0.1576 22.5564786866 8.0464719527 12.2027352387 # F
375 1 2 -0.1576 23.3484466587 7.1214777996 13.2580435313 # F
376 1 1 0.3275 22.4262201330 8.1934821443 14.4118784792 # C
377 1 2 -0.1576 23.1142664908 8.4558096565 14.9142068882 # F
378 1 2 -0.1576 21.8074646994 7.2078538707 15.0563499571 # F
379 1 1 0.3275 21.6634386909 9.4960749409 14.2540610827 # C
380 1 2 -0.1576 20.9617154814 9.0383196972 14.9609873790 # F
381 1 2 -0.1576 21.8395509555 9.0910187748 13.1137238010 # F
382 1 1 0.3275 21.2633862892 10.1803765005 14.1522001462 # C
383 1 2 -0.1576 22.1438677498 10.8604512308 13.6567516139 # F
384 1 2 -0.1576 20.6808085726 9.8610979991 13.5502133934 # F
385 1 1 0.3275 20.1268544884 10.4118814457 14.6369337956 # C
386 1 2 -0.1576 19.3701532329 10.5739470495 14.8231729896 # F
387 1 2 -0.1576 19.5213935498 9.8182753775 13.7540207050 # F
388 1 1 0.2465 20.2106778959 10.5076070492 15.9546392249 # C
389 1 2 -0.1336 19.5905829696 9.6670405376 15.9506292434 # F
390 1 2 -0.1336 19.2766793169 10.9155297800 15.9575774715 # F
391 1 1 0.1317 20.7767027444 10.4606284666 16.3482826675 # C
392 1 2 -0.1193 21.7305984499 10.3861286723 15.6016254476 # F
393 1 3 -0.3109 20.0758456621 9.9488375631 17.4177921757 # GFOc
394 1 1 0.4954 19.5424121690 9.0926565517 18.4038948390 # C
395 1 2 -0.1280 19.7506769340 8.0820603915 17.5827981063 # F
396 1 2 -0.1559 19.9980698257 9.3628902544 19.1184961753 # F
397 1 1 0.0465 18.8526837111 8.4013753186 18.6511331413 # C
398 1 2 -0.1122 18.2621096277 9.1881851901 19.3051363619 # F
399 1 1 0.5842 18.1372913146 7.6581134746 18.2068973168 # C
400 1 2 -0.1563 17.8107079030 7.2518115205 19.0780485175 # F
401 1 2 -0.1736 18.8643438575 7.1054268714 17.5099556957 # F
402 1 2 -0.1844 18.0895890203 7.0118156193 17.1946313801 # F
403 1 3 -0.2516 19.0765922368 7.4221740034 19.4358828890 # GFOc
404 1 1 0.4557 18.6209874995 6.5224407385 19.4445528977 # C
405 1 2 -0.1368 17.8598581293 6.3110454356 20.0882492161 # F
406 1 2 -0.1393 19.2852433162 5.9662915234 20.2664769499 # F
407 1 1 0.1062 18.0183541377 5.8804234211 18.7032723737 # C
408 1 2 -0.1457 17.6299736457 5.9171738962 17.7941062587 # F
409 1 2 -0.1482 18.6504397381 4.9264320968 18.5955805042 # F
410 1 4 1.1345 17.1018377159 5.2320511077 18.7370689093 # GGS
411 1 5 -0.6371 16.1741880146 5.1306933908 18.8786436593 # GOs
412 1 5 -0.6371 17.4322669738 4.4050177892 18.1283334055 # GOs
413 1 5 -0.6371 17.1865613301 5.5533832333 19.8115556308 # GOs
414 1 6 1.0000 17.3537501631 6.0375577525 20.6990470493 # Na
415 1 1 0.3275 21.0986678302 9.5455629313 16.9393528067 # C
416 1 2 -0.1576 20.4848666439 9.0705968516 17.5321235747 # F
417 1 2 -0.1576 21.5442510262 9.3110398711 17.8410715790 # F
418 1 1 0.3275 21.9064311462 9.2433821883 16.3108104958 # C
419 1 2 -0.1576 22.9861302000 9.3273661180 17.1533792763 # F
420 1 2 -0.1576 21.1311297119 8.2359684660 15.9604771349 # F
421 1 1 0.3275 21.9878906614 9.5606343194 15.2922574830 # C
422 1 2 -0.1576 22.6815129929 9.0682053371 15.4146277136 # F
423 1 2 -0.1576 21.5235731155 8.9461104082 14.2103582084 # F
424 1 1 0.3275 21.3601854603 10.5368452412 15.0867169191 # C
425 1 2 -0.1576 22.2137794936 11.5510228317 14.7363283795 # F
426 1 2 -0.1576 20.8568642536 11.3116979677 14.2416910020 # F
427 1 1 0.3275 21.1127083693 11.1745824065 16.1839700212 # C
428 1 2 -0.1576 20.8585927342 12.1988225474 16.0279233073 # F
429 1 2 -0.1576 21.9797371202 10.5384552551 16.4313331446 # F
430 1 1 0.3275 20.5909393853 11.4484933924 16.8641379374 # C
431 1 2 -0.1576 19.9534979872 10.8668667885 17.2373751695 # F
432 1 2 -0.1576 19.8138457276 11.7111950366 16.0611460276 # F
433 1 1 0.3275 21.9042908741 12.4837695177 17.0462300415 # C
434 1 2 -0.1576 22.5706515332 12.4555137292 15.9935170837 # F
435 1 2 -0.1576 22.2487465571 13.3564141202 17.4763326212 # F
436 1 1 0.3275 22.4736696468 11.8677189473 17.7123137545 # C
437 1 2 -0.1576 23.3867575619 12.4915373178 17.5061151788 # F
438 1 2 -0.1576 21.6628887401 12.3605357651 18.8502192185 # F
439 1 1 0.3275 22.8006591149 10.7801354636 18.6131460071 # C
440 1 2 -0.1576 23.6797895677 10.5911955961 18.4827737707 # F
441 1 2 -0.1576 22.7177151098 9.9278191685 19.3213227317 # F
442 1 1 0.3275 22.5682200852 11.3518111773 19.5981745542 # C
443 1 2 -0.1576 22.5315685923 12.2171552274 18.8184709289 # F
444 1 2 -0.1576 22.8479859601 11.6967576298 20.1150253440 # F
445 1 1 0.3275 22.4153182764 10.3454765680 20.4149030419 # C
446 1 2 -0.1576 22.1964183770 8.9409395389 20.2160864511 # F
447 1 2 -0.1576 21.5037139350 9.9061912696 20.8811930834 # F
448 1 1 0.3275 23.4034194700 10.3701480890 21.1526580321 # C
449 1 2 -0.1576 23.9018063762 9.8560131645 20.5504071637 # F
450 1 2 -0.1576 23.0625755571 9.8757245217 22.1482286861 # F
451 1 1 0.3275 23.6731874404 10.1400631331 22.2399618522 # C
452 1 2 -0.1576 23.7556198746 10.9981561987 22.9866536549 # F
453 1 2 -0.1576 24.6581215381 9.4863450105 21.8664116463 # F
454 1 1 0.3275 22.7619637483 9.9650151754 23.0394408469 # C
455 1 2 -0.1576 23.1463925977 9.3987453932 23.7929157122 # F
456 1 2 -0.1576 21.8639032362 10.7131135918 23.0940917526 # F
457 1 1 0.2465 23.5718117134 10.7077636237 23.6673016363 # C
458 1 2 -0.1336 23.0165532111 11.6040437701 22.9862012146 # F
459 1 2 -0.1336 23.9768894012 10.4541901561 24.3582783728 # F
460 1 1 0.1317 24.6001656918 10.6865257143 23.0961144488 # C
461 1 2 -0.1193 25.0840222422 10.0892645353 21.9872153377 # F
462 1 3 -0.3109 24.6803684861 11.8706314000 23.2577465438 # GFOc
463 1 1 0.4954 24.7078254371 12.6479046241 24.0967994755 # C
464 1 2 -0.1280 24.3627191361 11.5120197375 24.3999594376 # F
465 1 2 -0.1559 24.0853618766 13.1585697187 24.0146451222 # F
466 1 1 0.0465 25.2615948992 13.2417406459 24.9439194889 # C
467 1 2 -0.1122 25.6283055276 12.3596338379 24.2663708791 # F
468 1 1 0.5842 25.8403837429 13.8919529462 24.4616885173 # C
469 1 2 -0.1563 25.2055108442 14.6636273961 24.2663029098 # F
470 1 2 -0.1736 26.9956469612 13.9181158923 23.6550727977 # F
471 1 2 -0.1844 26.4945894301 12.7884778394 24.7661458379 # F
472 1 3 -0.2516 25.0643147634 13.6366980870 25.9614080221 # GFOc
473 1 1 0.4557 24.2393198423 14.0383400115 26.9003450586 # C
474 1 2 -0.1368 23.8610474786 13.3888510834 26.1406743625 # F
475 1 2 -0.1393 24.2397091485 13.5778027782 27.9480803464 # F
476 1 1 0.1062 24.0828252128 15.0629670204 27.1958128346 # C
477 1 2 -0.1457 23.4003117819 15.4959539400 27.4836198170 # F
478 1 2 -0.1482 25.0422341654 16.3275972283 27.8931983554 # F
479 1 4 1.1345 23.7478650061 15.4849719296 26.0995689133 # GGS
480 1 5 -0.6371 24.8120486373 16.3156041621 26.1045365584 # GOs
481 1 5 -0.6371 24.1726142152 14.8852795185 25.2583585271 # GOs