LAMMPS output created by EMC v9.4.4, build Aug  6 2019 08:14:42

        7994  atoms
6867 bonds
10430 angles
13377 dihedrals

           8  atom types
           7  bond types
          12  angle types
          14  dihedral types

             0    43.07791893  xlo xhi
             0    43.07791893  ylo yhi
             0    43.07791893  zlo zhi

Masses

  	   1   12.01115  # C
       2   18.99840  # F
       3   15.99940  # Oc
       4   32.06400  # S
       5   15.99940  # Os       
	   6    22.990 	 # Na
       7    1.00797  # H
       8    15.99940  # O

Atoms

1 1 1 0.3275 26.5607340251 35.5612593957 22.1440284084 # C
2 1 2 -0.1576 26.0225645270 35.7641111635 23.0137542865 # F
3 1 2 -0.1576 27.2267542671 35.9770715976 21.6415281345 # F
4 1 1 0.3275 26.7759416675 34.8087949059 21.9423480240 # C
5 1 2 -0.1576 25.7909371284 34.9456538913 22.0225904024 # F
6 1 2 -0.1576 26.8804631698 34.0748941120 23.0195132560 # F
7 1 1 0.3275 27.4572455281 34.5610678059 21.2698985235 # C
8 1 2 -0.1576 28.5674493581 34.4866991607 21.3229283099 # F
9 1 2 -0.1576 27.3342480381 35.3021110462 20.3509450990 # F
10 1 1 0.3275 27.3777268345 33.6397522495 21.6678708732 # C
11 1 2 -0.1576 26.2591894793 33.6731035385 21.3848640661 # F
12 1 2 -0.1576 27.9543422097 33.4841200161 21.0316335447 # F
13 1 1 0.3275 27.7807934396 33.5752654438 22.7917104525 # C
14 1 2 -0.1576 27.3049631402 33.4589232373 23.7819797193 # F
15 1 2 -0.1576 27.5892002173 32.5427726947 22.8033567817 # F
16 1 1 0.3275 28.4705393109 34.4721365145 22.7344039900 # C
17 1 2 -0.1576 28.6078450372 35.2071490393 21.7804148614 # F
18 1 2 -0.1576 29.6312840264 35.2263104817 23.0534499192 # F
19 1 1 0.3275 27.8123150345 35.6544253403 23.3244881243 # C
20 1 2 -0.1576 28.0203521709 36.2084653340 24.4708873397 # F
21 1 2 -0.1576 28.3582336295 36.5722947351 22.4604749880 # F
22 1 1 0.3275 26.8100933795 35.6727443853 23.6678065853 # C
23 1 2 -0.1576 25.6118765433 35.1374778626 23.5995707373 # F
24 1 2 -0.1576 27.2580687608 34.9476417732 23.5973981219 # F
25 1 1 0.3275 26.1739439156 36.2908261130 23.9491028252 # C
26 1 2 -0.1576 25.0393859080 36.3659167509 23.6707136717 # F
27 1 2 -0.1576 26.7409841198 37.6325412417 23.9540348146 # F
28 1 1 0.3275 25.5550548058 35.5330063721 24.6824537529 # C
29 1 2 -0.1576 25.0833633580 35.9492873605 25.8060329441 # F
30 1 2 -0.1576 24.7552721038 35.1291840279 24.1149030352 # F
31 1 1 0.3275 26.6301205539 34.9495422322 25.2655964747 # C
32 1 2 -0.1576 27.0232207137 34.1362202754 26.4161233551 # F
33 1 2 -0.1576 26.3622777870 33.8935437169 25.4153422495 # F
34 1 1 0.3275 27.4722631789 36.0132759537 25.8122431745 # C
35 1 2 -0.1576 26.6605159369 36.9996839829 25.3400468709 # F
36 1 2 -0.1576 28.0416482398 35.4658740284 25.8502169924 # F
37 1 1 0.3275 27.4438214012 37.1222348382 26.4447973539 # C
38 1 2 -0.1576 27.8036513292 37.7382135339 27.6414124426 # F
39 1 2 -0.1576 27.8998752794 37.7882738776 25.7121815627 # F
40 1 1 0.3275 27.0277776551 37.9203223800 26.5458074584 # C
41 1 2 -0.1576 27.8828933707 38.5500795873 25.9951995033 # F
42 1 2 -0.1576 26.2771490040 37.2578750532 26.4071882627 # F
43 1 1 0.2465 26.8636042700 38.1200120930 27.6940613901 # C
44 1 2 -0.1336 26.2642233738 37.2752797516 27.7821848431 # F
45 1 2 -0.1336 26.1480739534 38.1257330828 28.3704219627 # F
46 1 1 0.1317 28.0311547486 38.8378565118 27.8668599608 # C
47 1 2 -0.1193 27.1692084944 39.7267794246 27.6299711574 # F
48 1 3 -0.3109 28.2775511126 38.4750174411 27.1460820016 # Oc
49 1 1 0.4954 28.5959977309 37.4425490643 27.0535443415 # C
50 1 2 -0.1280 29.7856492010 37.8908477254 27.6440694803 # F
51 1 2 -0.1559 28.7222683040 36.7542258755 26.4383312316 # F
52 1 1 0.0465 28.3730370754 36.9569514535 27.5967225670 # C
53 1 2 -0.1122 28.9738693559 37.5033395124 28.1109552434 # F
54 1 1 0.5842 27.3663056476 36.0574432769 27.3601169166 # C
55 1 2 -0.1563 27.6414990605 34.6985607888 27.2146979458 # F
56 1 2 -0.1736 27.0178519195 35.9773779669 26.5359557131 # F
57 1 2 -0.1844 26.5248209624 36.1527547815 28.2983315551 # F
58 1 3 -0.2516 27.6280866845 36.7498325088 28.2931353514 # Oc
59 1 1 0.4557 26.7842655175 36.8951174952 28.7461560820 # C
60 1 2 -0.1368 27.5033165287 37.7771464311 29.3498646471 # F
61 1 2 -0.1393 25.7000238122 36.8789578911 28.4655489847 # F
62 1 1 0.1062 26.3530634430 36.1101882510 29.1067474989 # C
63 1 2 -0.1457 27.1774217531 36.2506274223 28.7936479624 # F
64 1 2 -0.1482 26.2726074768 35.0828036946 28.3680428446 # F
65 1 4 1.1345 25.7850890984 35.9409508095 30.1139750127 # S
66 1 5 -0.6371 26.1262730434 35.1262355068 30.1012985778 # Os
67 1 5 -0.6371 26.2618745803 37.0244834557 30.1421286904 # Os
68 1 5 -0.6371 25.2775764124 35.5654511344 30.6563622875 # Os
69 1 6 1.0000 24.8926726127 35.0451221219 30.2095404392 # Na
70 1 1 0.3275 28.9181790046 38.8255591505 28.9540001290 # C
71 1 2 -0.1576 29.4632062242 39.4450907458 30.1514834842 # F
72 1 2 -0.1576 28.7680562819 39.3165468598 29.8693255283 # F
73 1 1 0.3275 30.0432699678 37.6179689753 28.8382171034 # C
74 1 2 -0.1576 30.4532938522 37.7155858079 30.2270529867 # F
75 1 2 -0.1576 30.6692924413 38.2231376705 27.9947440655 # F
76 1 1 0.3275 29.4986803646 36.9650168523 28.7428794755 # C
77 1 2 -0.1576 28.7908329286 37.5658155481 29.4298332984 # F
78 1 2 -0.1576 29.9115531190 37.2828063794 27.6171310248 # F
79 1 1 0.3275 29.9950892811 35.6018587755 29.0414000843 # C
80 1 2 -0.1576 30.1917760988 34.4304712381 29.0033838931 # F
81 1 2 -0.1576 29.3829688940 35.0610164385 29.9952491757 # F
82 1 1 0.3275 30.6893514868 36.2747574939 28.2629853916 # C
83 1 2 -0.1576 31.2068200559 35.3812106304 27.6640788710 # F
84 1 2 -0.1576 31.2710727139 36.9229607261 29.1255609203 # F
85 1 1 0.3275 30.6659094810 36.5203814534 26.9886950612 # C
86 1 2 -0.1576 30.9097524097 36.4491737148 25.8436754750 # F
87 1 2 -0.1576 30.7460111119 37.4835976733 27.2214733832 # F
88 1 1 0.3275 30.2801021995 35.7307809793 26.6042300303 # C
89 1 2 -0.1576 29.6262941302 35.4751363164 27.1665959579 # F
90 1 2 -0.1576 30.8638444995 35.1845986831 26.4773951351 # F
91 1 1 0.3275 29.8969759264 35.8620870837 25.9088002176 # C
92 1 2 -0.1576 30.3495143143 36.3060381431 24.7656988838 # F
93 1 2 -0.1576 28.6707414973 35.4555392403 26.3240035799 # F
94 1 1 0.3275 29.3475267548 36.5615512098 25.2306999305 # C
95 1 2 -0.1576 28.2074556474 37.1237837900 25.0060329102 # F
96 1 2 -0.1576 29.1657096593 37.7464046563 25.4140863525 # F
97 1 1 0.3275 29.4229979605 35.9096243727 24.3681713168 # C
98 1 2 -0.1576 28.8723147311 36.5987714007 23.8177497102 # F
99 1 2 -0.1576 28.6983312173 35.2068174389 24.4028828230 # F
100 1 1 0.3275 30.5374533383 35.5320391423 24.7102156263 # C
101 1 2 -0.1576 31.5847297519 36.0550178424 24.2757435446 # F
102 1 2 -0.1576 30.6934222969 34.8528159079 25.6087671659 # F
103 1 1 0.3275 29.6368563360 34.8523672824 24.6718477759 # C
104 1 2 -0.1576 29.1918766049 34.3818148364 23.9429566224 # F
105 1 2 -0.1576 30.2927621626 34.1382051080 24.0042872884 # F
106 1 1 0.3275 28.5024366525 35.2587702829 25.3514981246 # C
107 1 2 -0.1576 28.3255400676 34.6813971737 26.3535554606 # F
108 1 2 -0.1576 27.3513550175 34.4151743109 24.9881792786 # F
109 1 1 0.3275 28.6736957882 36.1482347764 25.7578458648 # C
110 1 2 -0.1576 27.8881915512 36.6882740212 25.9365053162 # F
111 1 2 -0.1576 29.1985062864 37.0177587172 25.5558132058 # F
112 1 1 0.2465 28.8940626203 35.5581646009 26.9859632544 # C
113 1 2 -0.1336 29.2471561719 35.0175802291 26.2270092181 # F
114 1 2 -0.1336 28.0536550763 35.3506858784 27.5926703793 # F
115 1 1 0.1317 29.7994926327 35.1131747744 27.7328469527 # C
116 1 2 -0.1193 29.5418328368 34.2266184784 28.6270594122 # F
117 1 3 -0.3109 29.6170724697 36.0277770338 28.3522396792 # Oc
118 1 1 0.4954 29.6334652666 35.8932701459 30.0007323334 # C
119 1 2 -0.1280 29.6180973385 34.7921489789 30.7750360544 # F
120 1 2 -0.1559 28.7213520080 35.6494621031 30.3844276531 # F
121 1 1 0.0465 30.1901321445 36.5338163717 30.5161092092 # C
122 1 2 -0.1122 29.5901109175 36.5873134949 31.3850329649 # F
123 1 1 0.5842 30.3325027227 36.2783082923 31.6035787241 # C
124 1 2 -0.1563 30.5309932350 36.7964389899 32.4660879457 # F
125 1 2 -0.1736 29.3611868502 36.1617377090 32.3823257272 # F
126 1 2 -0.1844 30.1950160097 35.3403792233 31.6820922005 # F
127 1 3 -0.2516 31.0918516971 36.7178494322 30.3974781586 # Oc
128 1 1 0.4557 32.1994793916 36.5760233651 30.0697769293 # C
129 1 2 -0.1368 32.3124980714 36.9396216974 30.9663043909 # F
130 1 2 -0.1393 33.0453402535 36.6136980100 29.1404052924 # F
131 1 1 0.1062 31.6973212241 36.2432398668 29.2323324497 # C
132 1 2 -0.1457 31.9693547045 35.0872487689 28.9496798087 # F
133 1 2 -0.1482 31.2347730963 35.9479356340 30.2740403670 # F
134 1 4 1.1345 31.6713869908 36.9589233802 28.4281099029 # S
135 1 5 -0.6371 30.9881293481 37.5141503614 28.4726955918 # Os
136 1 5 -0.6371 30.8864362225 36.8570172867 27.8763124893 # Os
137 1 5 -0.6371 32.6323105149 37.4155353641 28.0679036222 # Os
138 1 6 1.0000 32.5780638193 36.6325761279 26.8563907573 # Na
139 1 1 0.3275 30.4482161513 34.6416403704 26.9229579699 # C
140 1 2 -0.1576 30.8972337006 33.8777253274 27.5193185478 # F
141 1 2 -0.1576 30.2059075987 34.1274816254 26.4206120514 # F
142 1 1 0.3275 30.6559678453 35.7377227291 27.3289330062 # C
143 1 2 -0.1576 30.4015563950 35.0950401099 28.2149056166 # F
144 1 2 -0.1576 29.2532326019 36.1973963828 27.4922949829 # F
145 1 1 0.3275 31.3763790841 36.0966968819 26.7024552398 # C
146 1 2 -0.1576 31.5591658842 35.2649595153 26.0513850392 # F
147 1 2 -0.1576 31.8909313522 36.0251233159 27.0739486204 # F
148 1 1 0.3275 31.4142000346 37.1018296905 25.9247344157 # C
149 1 2 -0.1576 31.7074247017 37.8090563606 26.5036432725 # F
150 1 2 -0.1576 31.6425856056 37.2557753387 24.9159321018 # F
151 1 1 0.3275 30.5726516872 37.8346493467 25.0686933267 # C
152 1 2 -0.1576 30.0261113271 37.3540751500 24.3509246279 # F
153 1 2 -0.1576 30.5860146935 37.9248374832 26.2482392124 # F
154 1 1 0.3275 31.0293429321 38.1275898943 24.0889178977 # C
155 1 2 -0.1576 30.4364024071 38.7587775732 23.9419226492 # F
156 1 2 -0.1576 30.9297840976 37.5780216161 23.2522441065 # F
157 1 1 0.3275 31.5635569098 39.2239524276 24.2444545987 # C
158 1 2 -0.1576 32.1612436226 38.5182726037 24.6964329757 # F
159 1 2 -0.1576 30.6874510122 39.8051347816 25.5153330630 # F
160 1 1 0.3275 32.1172627404 40.0140419065 23.9467728640 # C
161 1 2 -0.1576 31.4742644750 40.5795895411 24.5385897950 # F
162 1 2 -0.1576 33.2885272389 40.8910703540 23.5252807683 # F
163 1 1 0.3275 32.0967346670 40.3720289906 22.9889782594 # C
164 1 2 -0.1576 32.4332965927 40.1541835278 22.1060321252 # F
165 1 2 -0.1576 30.8227669000 40.7784246650 23.1103378470 # F
166 1 1 0.3275 31.6067127213 41.1791540229 21.7192046226 # C
167 1 2 -0.1576 30.8457150827 41.5638107103 22.6744876019 # F
168 1 2 -0.1576 32.4388751783 41.2645657347 20.6712291093 # F
169 1 1 0.3275 30.9430946330 41.0641877868 20.6774895546 # C
170 1 2 -0.1576 30.8162438391 40.1958647881 20.9711501389 # F
171 1 2 -0.1576 30.7867124434 42.2420401911 20.7895235008 # F
172 1 1 0.3275 31.2759968368 40.9966723222 19.5790392675 # C
173 1 2 -0.1576 30.3209180122 41.3645345694 19.7353898303 # F
174 1 2 -0.1576 31.6200061597 40.1470066584 20.3509642478 # F
175 1 1 0.3275 31.4857191921 40.7478778480 18.5443059958 # C
176 1 2 -0.1576 32.1564772486 39.6338669509 18.7245395542 # F
177 1 2 -0.1576 30.4002381996 39.9904890257 18.4583999038 # F
178 1 1 0.3275 31.9922676786 42.1714314237 18.3904634670 # C
179 1 2 -0.1576 32.9356843340 41.8204135524 17.5467896712 # F
180 1 2 -0.1576 32.1900064761 42.6708692826 19.3296507997 # F
181 1 1 0.2465 31.3807212544 42.7940286011 17.8104763721 # C
182 1 2 -0.1336 31.4540341269 0.4893051283 17.9730273136 # F
183 1 2 -0.1336 31.3190509791 41.8993803827 17.4859762621 # F
184 1 1 0.1317 30.4068773291 42.9898312787 17.2556085928 # C
185 1 2 -0.1193 30.0727112732 0.4936253449 18.4745850391 # F
186 1 3 -0.3109 30.2668830694 42.1058369282 17.8537507743 # Oc
187 1 1 0.4954 29.7005727573 41.5775596236 18.0587751330 # C
188 1 2 -0.1280 28.9700508288 42.0102178767 18.4891139010 # F
189 1 2 -0.1559 30.5323354196 41.5219897049 18.5767104922 # F
190 1 1 0.0465 29.3740673216 40.4766054590 18.3718526289 # C
191 1 2 -0.1122 29.5723371774 40.1789400290 17.2456188926 # F
192 1 1 0.5842 28.3646342561 40.1809907645 18.5103539514 # C
193 1 2 -0.1563 28.1586474057 40.3965406590 17.3517946919 # F
194 1 2 -0.1736 28.5667555191 39.4025002010 19.0318436217 # F
195 1 2 -0.1844 27.5656599730 40.7101179605 19.1917088617 # F
196 1 3 -0.2516 29.9705145579 40.3943357964 19.6748204437 # Oc
197 1 1 0.4557 30.7513975413 39.1295367608 20.3289734457 # C
198 1 2 -0.1368 32.2043308536 39.8735133325 20.5063748999 # F
199 1 2 -0.1393 31.0354523761 38.3149939091 21.1405768944 # F
200 1 1 0.1062 29.9035612051 38.4122524801 20.6801054967 # C
201 1 2 -0.1457 29.7259601200 38.0201028779 21.8501237113 # F
202 1 2 -0.1482 29.6460682344 37.4663180628 20.2052743150 # F
203 1 4 1.1345 28.8288554768 38.7506319842 19.7983316609 # S
204 1 5 -0.6371 28.2591883069 37.9655144616 20.2456809196 # Os
205 1 5 -0.6371 29.3336215969 39.7998866977 19.2252211360 # Os
206 1 5 -0.6371 28.9716682244 38.8130404822 18.5782277432 # Os
207 1 6 1.0000 29.5491036502 38.6300764837 17.8702500177 # Na
208 1 1 0.3275 30.0912235024 42.2387206555 15.9849746237 # C
209 1 2 -0.1576 30.8716680066 0.0711048159 15.9897348725 # F
210 1 2 -0.1576 29.2183834099 42.2247617786 15.4500042505 # F
211 1 1 0.3275 29.9858528133 41.4715349231 15.3601855199 # C
212 1 2 -0.1576 29.8342945060 40.8634908268 16.0898287982 # F
213 1 2 -0.1576 30.7875414642 41.0207040966 14.8711463680 # F
214 1 1 0.3275 28.8625835799 40.2768286429 15.9755821764 # C
215 1 2 -0.1576 27.8559967738 40.6490884761 16.2796008455 # F
216 1 2 -0.1576 28.4212888743 39.4462282328 15.5660953962 # F
217 1 1 0.3275 29.4201677022 39.6664047972 16.1194192149 # C
218 1 2 -0.1576 30.4164187381 39.8418859091 16.3323821875 # F
219 1 2 -0.1576 30.2588108728 39.9817242763 15.5350899532 # F
220 1 1 0.3275 29.3041471050 38.3991975634 16.0087598407 # C
221 1 2 -0.1576 29.8906638712 38.0241782957 15.3998028340 # F
222 1 2 -0.1576 29.3873694582 38.0205523005 16.8778966577 # F
223 1 1 0.3275 28.2981106317 38.2982655948 15.4174312074 # C
224 1 2 -0.1576 27.4972752444 38.4664697020 16.1254433435 # F
225 1 2 -0.1576 27.6762699404 38.8176284033 14.8773337197 # F
226 1 1 0.3275 28.7241038436 37.8514626274 14.4542624245 # C
227 1 2 -0.1576 30.3751078360 37.7245818688 14.3423689165 # F
228 1 2 -0.1576 29.4590746556 38.8707198583 13.9704780985 # F
229 1 1 0.3275 27.8890757008 37.3354415598 14.4819739057 # C
230 1 2 -0.1576 27.8333715238 36.8121428891 15.2585993573 # F
231 1 2 -0.1576 27.4140608593 37.0894034890 13.7813940589 # F
232 1 1 0.3275 27.5464477479 38.1612601222 14.5479233558 # C
233 1 2 -0.1576 28.5440716888 38.8756369219 14.5303733099 # F
234 1 2 -0.1576 27.8564684660 38.6032153427 13.8172014128 # F
235 1 1 0.3275 26.7937293666 38.5879355660 15.2433363672 # C
236 1 2 -0.1576 26.5757264876 39.9498573385 15.2030803851 # F
237 1 2 -0.1576 26.6772666683 37.9782024074 16.1228807013 # F
238 1 1 0.3275 25.4289749506 38.5240089120 14.6882581796 # C
239 1 2 -0.1576 24.9123685592 39.3450145854 15.0658830224 # F
240 1 2 -0.1576 25.0059427764 37.9390342513 15.3833630677 # F
241 1 1 0.3275 26.0597466708 38.4458896421 13.8279079031 # C
242 1 2 -0.1576 25.7808517710 37.6089628559 13.8113685452 # F
243 1 2 -0.1576 26.6676286046 37.5624495130 13.2419139165 # F
244 1 1 0.3275 26.9670289715 39.7118433267 13.9995861923 # C
245 1 2 -0.1576 26.4795985319 40.8895314760 14.6554917650 # F
246 1 2 -0.1576 26.8837461966 40.5664595442 13.6770606523 # F
247 1 1 0.3275 28.0389380965 39.4311202657 14.0238897777 # C
248 1 2 -0.1576 28.8735332258 39.6527058253 14.6168488883 # F
249 1 2 -0.1576 29.0612231066 39.4876522396 13.4011750763 # F
250 1 1 0.2465 28.3903018579 38.6990236221 13.5683648689 # C
251 1 2 -0.1336 27.8058706032 37.8872250013 13.0361277557 # F
252 1 2 -0.1336 29.2629152842 38.1441322523 14.1086982468 # F
253 1 1 0.1317 29.2511319462 38.3400011214 12.4433795519 # C
254 1 2 -0.1193 30.1197062686 38.4078659282 12.2152239497 # F
255 1 3 -0.3109 29.0707990486 39.1171847143 11.9896817936 # Oc
256 1 1 0.4954 29.4339292187 40.4185236144 12.1583947807 # C
257 1 2 -0.1280 29.4124240561 40.4318876251 13.1376884071 # F
258 1 2 -0.1559 28.6559435782 41.3900886832 11.9650272200 # F
259 1 1 0.0465 29.8774031889 40.1619446549 11.2395092272 # C
260 1 2 -0.1122 29.9343625369 39.2524211999 11.4579831014 # F
261 1 1 0.5842 29.5717314753 40.1658894623 10.5008228504 # C
262 1 2 -0.1563 29.7845611475 40.3884246283 9.3624923226 # F
263 1 2 -0.1736 29.5780379762 39.3301619230 10.2602747954 # F
264 1 2 -0.1844 28.5583317842 40.0819323658 10.9763049108 # F
265 1 3 -0.2516 30.8816790385 40.4194424492 11.0582000012 # Oc
266 1 1 0.4557 31.8135698017 39.9777260024 10.6508261994 # C
267 1 2 -0.1368 31.8138247152 40.7744995972 10.0179086584 # F
268 1 2 -0.1393 32.2640530851 39.4211528128 11.4884791617 # F
269 1 1 0.1062 32.4160742960 38.8746611987 10.2998478995 # C
270 1 2 -0.1457 31.4586790374 38.5863119464 10.8818441169 # F
271 1 2 -0.1482 33.2372086900 39.1840988233 10.6239646565 # F
272 1 4 1.1345 32.5356019870 39.0209608605 9.5285862106 # S
273 1 5 -0.6371 33.1573116987 38.6376221572 8.7016204530 # Os
274 1 5 -0.6371 33.2948302184 39.5128575520 9.7966215467 # Os
275 1 5 -0.6371 31.0883204562 39.5608132188 8.6250964717 # Os
276 1 6 1.0000 30.3628992805 39.4395805754 8.0377502167 # Na
277 1 1 0.3275 28.9861967028 37.4016834353 12.7039377135 # C
278 1 2 -0.1576 29.7100960037 36.8688122331 12.3318693846 # F
279 1 2 -0.1576 28.6543171253 37.2317639577 13.5756456921 # F
280 1 1 0.3275 28.2252070726 37.0011455865 11.9541419338 # C
281 1 2 -0.1576 27.5716216591 36.4691885133 11.8447303499 # F
282 1 2 -0.1576 29.1254435704 36.5903589184 11.5971975675 # F
283 1 1 0.3275 27.6075091908 37.8776859012 10.9494997743 # C
284 1 2 -0.1576 27.4369243341 38.5350620455 10.0985595624 # F
285 1 2 -0.1576 28.4813997028 38.3458003646 10.9137208986 # F
286 1 1 0.3275 26.6069656125 37.6392459368 10.7202195789 # C
287 1 2 -0.1576 26.6649280922 36.7976692461 10.3006677298 # F
288 1 2 -0.1576 26.3849991967 38.0126633758 9.8526024501 # F
289 1 1 0.3275 26.0664587631 38.3050106902 11.3514745236 # C
290 1 2 -0.1576 26.0142989033 37.1494376692 11.1164900098 # F
291 1 2 -0.1576 25.8386610748 39.1629490051 11.2657196774 # F
292 1 1 0.3275 26.5196259557 38.2742607992 12.1900482418 # C
293 1 2 -0.1576 25.5527541057 38.0021137111 12.6368997113 # F
294 1 2 -0.1576 26.7820323738 39.4012721955 12.3002682389 # F
295 1 1 0.3275 27.1873850018 37.5924123738 11.7978056099 # C
296 1 2 -0.1576 26.8057758133 36.7965890496 11.7324802548 # F
297 1 2 -0.1576 28.3794763499 37.4152088085 10.9517936130 # F
298 1 1 0.3275 27.9430029568 37.9716042447 12.1904273473 # C
299 1 2 -0.1576 27.7090580791 38.9838644488 11.6033721281 # F
300 1 2 -0.1576 28.8502565973 37.9806827656 11.2048942441 # F
301 1 1 0.3275 28.2416569881 37.2484471077 13.1533993518 # C
302 1 2 -0.1576 27.9263810014 36.2490940126 12.3825452383 # F
303 1 2 -0.1576 29.0352409450 37.9299042924 13.3894490210 # F
304 1 1 0.3275 27.2219932293 36.8232640033 13.2790226030 # C
305 1 2 -0.1576 27.0202633069 36.2357215951 12.4617212363 # F
306 1 2 -0.1576 27.5584858256 35.7418384071 14.1850157686 # F
307 1 1 0.3275 26.7154362854 37.3036955927 14.0130433001 # C
308 1 2 -0.1576 26.6078654550 38.5295017108 14.3095922650 # F
309 1 2 -0.1576 25.6752069882 36.7704488558 13.7369148749 # F
310 1 1 0.3275 26.0009671246 37.0344986980 15.3660961932 # C
311 1 2 -0.1576 25.7622013427 38.3392207038 15.7675528182 # F
312 1 2 -0.1576 26.6625095117 36.4466278665 16.0437399452 # F
313 1 1 0.3275 25.1792234529 37.0946295917 15.4121691874 # C
314 1 2 -0.1576 24.4776798249 36.9910754364 16.5200810480 # F
315 1 2 -0.1576 24.8846980016 38.2847637263 16.1801634340 # F
316 1 1 0.3275 24.8160637187 36.8980216724 14.3524075708 # C
317 1 2 -0.1576 24.2908169467 38.0745841770 13.6994890336 # F
318 1 2 -0.1576 25.5668044069 36.2893372580 14.4424745455 # F
319 1 1 0.2465 23.8659982021 36.0451467241 14.0841149054 # C
320 1 2 -0.1336 23.4514787682 35.6600912331 14.7621817110 # F
321 1 2 -0.1336 23.2945841519 36.6200469079 14.4647606612 # F
322 1 1 0.1317 24.8507328079 35.1593665023 13.8782302181 # C
323 1 2 -0.1193 24.2984452033 35.0878926931 13.1408954035 # F
324 1 3 -0.3109 26.0663533549 35.6624252754 13.9798393517 # Oc
325 1 1 0.4954 27.0650154043 35.3762593668 13.4150468180 # C
326 1 2 -0.1280 28.0643364582 35.3106351305 13.6910570091 # F
327 1 2 -0.1559 27.3655314435 34.2333720128 13.6450139630 # F
328 1 1 0.0465 27.1594175038 34.9870689429 11.9917129645 # C
329 1 2 -0.1122 27.6548694335 33.8328882728 11.6806897423 # F
330 1 1 0.5842 26.1845146610 35.1676093354 12.3617965783 # C
331 1 2 -0.1563 25.7335382517 34.4156776643 12.4038381806 # F
332 1 2 -0.1736 26.2467032149 35.0041396021 11.1179510181 # F
333 1 2 -0.1844 25.2805398899 35.5370267036 12.4447338097 # F
334 1 3 -0.2516 28.0600031999 35.8982851721 11.2855694129 # Oc
335 1 1 0.4557 28.7714396431 35.9782689533 12.4557698905 # C
336 1 2 -0.1368 28.5949870157 34.9445318667 12.5434945643 # F
337 1 2 -0.1393 28.3254753431 36.1915075141 13.2276335208 # F
338 1 1 0.1062 29.6985859339 36.2030420396 12.5731572256 # C
339 1 2 -0.1457 29.8118367939 36.8653995769 13.3490273120 # F
340 1 2 -0.1482 30.6176692407 36.2979603569 11.5912488108 # F
341 1 4 1.1345 29.6492997828 35.5203606055 13.3371056761 # S
342 1 5 -0.6371 30.3114315387 34.8903223824 13.3852118606 # Os
343 1 5 -0.6371 29.5412755315 36.0472907069 14.2242586147 # Os
344 1 5 -0.6371 30.1995119449 34.9991964270 12.4787876791 # Os
345 1 6 1.0000 31.2816670685 34.7059399367 12.6738131785 # Na
346 1 1 0.3275 25.2513541998 34.2063499627 13.9141904203 # C
347 1 2 -0.1576 24.8184718801 33.9198042576 14.9563958393 # F
348 1 2 -0.1576 24.6891118129 33.8496857885 12.6989067701 # F
349 1 1 0.3275 26.0440150790 33.9544890874 14.4647620486 # C
350 1 2 -0.1576 26.5465819919 33.5965565236 15.5019375796 # F
351 1 2 -0.1576 25.1740044377 34.5510919664 14.5758341889 # F
352 1 1 0.3275 26.8550752484 33.4616263782 14.1394882231 # C
353 1 2 -0.1576 27.3866895764 34.0397679712 14.4394947652 # F
354 1 2 -0.1576 26.1614601741 32.7958944334 13.1616305087 # F
355 1 1 0.3275 27.6071291619 32.7244396080 13.6252080311 # C
356 1 2 -0.1576 28.1543172506 33.3721903082 12.9705827922 # F
357 1 2 -0.1576 27.4619270002 32.3224436556 12.7791595861 # F
358 1 1 0.3275 28.4643614297 32.4596358541 14.1239737074 # C
359 1 2 -0.1576 28.5713157462 31.6239306882 15.0945115834 # F
360 1 2 -0.1576 28.7744637603 32.0095348740 13.2099240408 # F
361 1 1 0.3275 28.9605061323 33.2055924225 14.5182510373 # C
362 1 2 -0.1576 28.5610774636 33.6165931814 13.7314350363 # F
363 1 2 -0.1576 28.3203170223 33.2087283253 15.1109305842 # F
364 1 1 0.3275 30.1907079679 33.3670326170 15.1172889543 # C
365 1 2 -0.1576 30.1058132243 32.8654765677 14.5445405419 # F
366 1 2 -0.1576 30.5791272545 34.4174051569 14.6296231084 # F
367 1 1 0.3275 30.5376030085 33.5570994417 15.8882284665 # C
368 1 2 -0.1576 30.7813795204 34.3297188568 15.7995083294 # F
369 1 2 -0.1576 30.0457973896 33.2998906905 16.7380957967 # F
370 1 1 0.3275 31.7945166672 33.3489746888 16.1298594453 # C
371 1 2 -0.1576 31.9229760891 34.6041855347 16.2873534886 # F
372 1 2 -0.1576 32.1938627424 33.6522041740 17.1583363948 # F
373 1 1 0.3275 32.5909475722 32.4958386542 15.9035399982 # C
374 1 2 -0.1576 32.3436046754 32.8830137209 16.5682546497 # F
375 1 2 -0.1576 32.5880372485 31.0878206596 16.2447459838 # F
376 1 1 0.3275 32.9757802552 32.1056872210 15.0543263281 # C
377 1 2 -0.1576 32.6800617879 32.9285153590 14.0846772880 # F
378 1 2 -0.1576 32.4848910351 32.8834669590 14.4812551971 # F
379 1 1 0.3275 33.7124709733 31.3010469064 15.2287150012 # C
380 1 2 -0.1576 32.8269002669 30.8277688198 15.3990131914 # F
381 1 2 -0.1576 34.6050801252 31.3547849272 15.0712797436 # F
382 1 1 0.3275 34.8565917363 30.4496093417 15.4963094386 # C
383 1 2 -0.1576 34.5911704405 29.2879056417 16.3603965963 # F
384 1 2 -0.1576 35.3438479365 29.9910926772 14.7293912083 # F
385 1 1 0.3275 35.5226468339 31.1443398575 16.2447588540 # C
386 1 2 -0.1576 36.3824293096 30.9306545091 17.0186118536 # F
387 1 2 -0.1576 34.2220933612 31.4396175050 16.3908949343 # F
388 1 1 0.2465 35.9100406105 32.0417432305 16.2942771754 # C
389 1 2 -0.1336 35.5913945057 33.0084292347 17.0609996139 # F
390 1 2 -0.1336 37.1474284506 31.3251127088 16.3734746360 # F
391 1 1 0.1317 36.1542050531 32.5635653741 15.3867045538 # C
392 1 2 -0.1193 37.0308461706 33.3235665718 16.5517909007 # F
393 1 3 -0.3109 34.8628735606 33.1784481864 15.5730241891 # Oc
394 1 1 0.4954 34.0724647310 33.9723332076 15.7862401801 # C
395 1 2 -0.1280 33.2370261701 34.5153316158 14.6750852481 # F
396 1 2 -0.1559 33.9818222775 34.5726751234 16.5122996564 # F
397 1 1 0.0465 33.8205454799 32.9763393695 15.5108307568 # C
398 1 2 -0.1122 33.5291949282 33.3288522700 14.4861509008 # F
399 1 1 0.5842 34.6994144460 32.4069768420 15.0911983090 # C
400 1 2 -0.1563 34.9019605852 31.9364912369 15.7002584007 # F
401 1 2 -0.1736 35.7163360341 33.2089677962 14.6305662527 # F
402 1 2 -0.1844 34.2059208931 31.5718961979 14.3979700010 # F
403 1 3 -0.2516 33.4098644214 32.8755962357 16.7340323456 # Oc
404 1 1 0.4557 33.2796936330 32.9670984186 17.8665436933 # C
405 1 2 -0.1368 33.3775542614 34.0113146490 17.9991397449 # F
406 1 2 -0.1393 33.7962445703 32.1445409255 18.4260679863 # F
407 1 1 0.1062 32.6435675833 32.3247230068 18.2716222434 # C
408 1 2 -0.1457 32.5534644956 32.6817007289 19.4784288265 # F
409 1 2 -0.1482 31.8768226318 32.8264591265 17.1299266064 # F
410 1 4 1.1345 32.8862512592 31.3881811277 18.3699094149 # S
411 1 5 -0.6371 32.3980454459 30.8976054533 18.5716992105 # Os
412 1 5 -0.6371 33.3992789827 31.3922793290 17.3904069263 # Os
413 1 5 -0.6371 33.6618920020 31.1764073824 19.1733902554 # Os
414 1 6 1.0000 34.2820719195 32.0453247626 19.7693833551 # Na
415 1 1 0.3275 36.6534157187 32.0688184312 14.4904260579 # C
416 1 2 -0.1576 36.5273246448 31.3110845205 15.2103135059 # F
417 1 2 -0.1576 36.8474100327 33.3219093092 14.4007816731 # F
418 1 1 0.3275 36.5615518007 31.8087487551 13.6906872431 # C
419 1 2 -0.1576 36.1233339439 32.5354136852 13.1539838973 # F
420 1 2 -0.1576 37.4878316620 31.8427630799 14.0383182510 # F
421 1 1 0.3275 35.6533080684 31.5418565183 12.9007682916 # C
422 1 2 -0.1576 35.0444843180 32.4429168167 12.9123396182 # F
423 1 2 -0.1576 35.0379055239 30.8114272581 12.7059834675 # F
424 1 1 0.3275 36.0712132040 31.7760215210 12.0088811214 # C
425 1 2 -0.1576 37.1298724906 30.9574754029 11.5468104073 # F
426 1 2 -0.1576 36.5919407865 32.3346324938 11.8376707304 # F
427 1 1 0.3275 34.8482108014 31.5193763511 11.4545721331 # C
428 1 2 -0.1576 35.4579820191 32.5946907635 11.2069164192 # F
429 1 2 -0.1576 34.6120015346 30.3927753414 11.7669280586 # F
430 1 1 0.3275 33.8471936402 32.0272881352 11.0465134113 # C
431 1 2 -0.1576 33.8537963903 32.2721582240 10.1988109928 # F
432 1 2 -0.1576 33.6031260889 31.4176216420 11.8366839401 # F
433 1 1 0.3275 33.1723468505 32.2961198080 10.9343675018 # C
434 1 2 -0.1576 33.1266294434 32.9810311187 11.5116787617 # F
435 1 2 -0.1576 32.5913905492 31.5506667679 11.6731968572 # F
436 1 1 0.3275 32.1737753937 32.4256516482 10.2065160070 # C
437 1 2 -0.1576 31.2634552938 31.4379029289 10.8175894522 # F
438 1 2 -0.1576 31.8216045073 33.7860644343 10.9686809259 # F
439 1 1 0.3275 32.1718367597 32.3453908427 9.1020307108 # C
440 1 2 -0.1576 32.4186782399 32.5896692935 8.2805553574 # F
441 1 2 -0.1576 31.4176623017 31.9123532044 10.1610167965 # F
442 1 1 0.3275 32.6351209737 31.6322241062 8.1031172988 # C
443 1 2 -0.1576 32.8784170478 32.5363064038 7.3530980487 # F
444 1 2 -0.1576 31.7918240913 31.6021665692 7.1996869375 # F
445 1 1 0.3275 33.1175841380 31.0683798821 8.5562051497 # C
446 1 2 -0.1576 32.7241186883 30.6837786360 7.7046839465 # F
447 1 2 -0.1576 33.8351206489 30.9278404227 9.2363330807 # F
448 1 1 0.3275 32.7069029860 30.0983697805 9.0237283282 # C
449 1 2 -0.1576 31.3685066397 29.9760271282 9.1888562153 # F
450 1 2 -0.1576 32.8951074372 30.0448360559 10.4277688626 # F
451 1 1 0.3275 33.3004852335 29.1353347973 8.9056833876 # C
452 1 2 -0.1576 34.2286384544 29.1849315754 8.2506021964 # F
453 1 2 -0.1576 33.4443103056 29.0600410173 10.1335451574 # F
454 1 1 0.3275 32.7315882364 28.3939604572 8.0601070202 # C
455 1 2 -0.1576 32.3714193803 29.0331078556 8.6445922405 # F
456 1 2 -0.1576 32.6529358366 28.0036005853 6.9829094473 # F
457 1 1 0.2465 32.3071794967 26.8766812609 8.1176009107 # C
458 1 2 -0.1336 32.2599727539 25.6819941160 7.7930668096 # F
459 1 2 -0.1336 32.0925052292 26.5950027497 9.0326782725 # F
460 1 1 0.1317 31.8662802439 27.0060557772 6.8826687193 # C
461 1 2 -0.1193 32.7202556952 27.0155102601 6.4543852507 # F
462 1 3 -0.3109 30.9457557059 27.5507647241 6.8891732271 # Oc
463 1 1 0.4954 30.8583448000 27.2505640612 5.9480475047 # C
464 1 2 -0.1280 31.2252227731 26.0993815325 6.1793288181 # F
465 1 2 -0.1559 29.8683946081 27.8193705647 6.4326871561 # F
466 1 1 0.0465 31.4556866420 27.8009624795 5.1272935891 # C
467 1 2 -0.1122 32.4621569602 27.7023599792 4.8351582311 # F
468 1 1 0.5842 32.0546105072 27.9675695249 6.2835117625 # C
469 1 2 -0.1563 32.2020783460 27.2203182209 5.8095009481 # F
470 1 2 -0.1736 31.8603526749 28.2814752865 7.3926771573 # F
471 1 2 -0.1844 32.5516877017 28.4343414045 6.3905355530 # F
472 1 3 -0.2516 31.2002908156 28.5921403840 5.0231366542 # Oc
473 1 1 0.4557 29.9826967122 29.1705497422 5.2774230139 # C
474 1 2 -0.1368 29.3761095437 28.7549311033 6.4974499408 # F
475 1 2 -0.1393 28.7739642274 28.4886754676 4.4512408550 # F
476 1 1 0.1062 29.6806172224 30.4885980063 5.5566997910 # C
477 1 2 -0.1457 30.7266638753 30.6435373560 5.3259583613 # F
478 1 2 -0.1482 28.3480677936 29.8154215791 6.5706576283 # F
479 1 4 1.1345 29.2863389448 31.6429453451 5.6913573133 # S