LAMMPS output created by EMC v9.4.4, build Aug  6 2019 08:14:42

        7994  atoms
        6937  bonds
       10500  angles
       13587  dihedrals

           8  atom types
           7  bond types
          12  angle types
          14  dihedral types

             0    43.07791893  xlo xhi
             0    43.07791893  ylo yhi
             0    43.07791893  zlo zhi

Masses

       1   20.00000  # C
       2   20.00000  # F
       3   20.00000  # Oc
       4   20.00000  # S
       5   20.00000  # Os
       6   20.00000  # Na
       7   20.00000  # H
       8   20.00000  # O

Atoms

       1   1  18.8152000946  36.8511637401  30.2785751646       1  0.3275  # C
       2   2  18.3063707631  35.9895817099  30.0787204368       1 -0.1576  # F
       3   2  19.1200346722  37.4992298474  29.6105868178       1 -0.1576  # F
       4   1  18.4543874190  37.3676182335  31.3745022871       1  0.3275  # C
       5   2  17.5109352934  37.7694446560  32.0214068982       1 -0.1576  # F
       6   2  18.6584034068  36.9449638090  32.5101735856       1 -0.1576  # F
       7   1  19.3834381894  37.9740384251  31.4996102673       1  0.3275  # C
       8   2  19.2458207860  38.8963057673  32.5694742258       1 -0.1576  # F
       9   2  19.1008910777  38.0766884866  30.2513518494       1 -0.1576  # F
      10   1  20.8130578096  37.6276049646  31.6972989357       1  0.3275  # C
      11   2  21.1734724366  38.6022756521  31.6617191253       1 -0.1576  # F
      12   2  21.3173580456  37.4784021510  32.5884050658       1 -0.1576  # F
      13   1  21.0013304009  36.6973193125  31.5813434600       1  0.3275  # C
      14   2  21.6929209682  37.0205180951  31.0624204200       1 -0.1576  # F
      15   2  21.3112067963  35.5034873482  30.8481791994       1 -0.1576  # F
      16   1  20.7369189756  36.2167695203  32.5327443918       1  0.3275  # C
      17   2  20.7427565127  36.3276289366  33.3768657904       1 -0.1576  # F
      18   2  21.7213732366  36.5732239874  32.5036816773       1 -0.1576  # F
      19   1  20.0336934316  35.4553589664  32.1329205469       1  0.3275  # C
      20   2  19.3003745276  34.7857886502  31.5289424161       1 -0.1576  # F
      21   2  19.9940677442  36.2268849712  31.2730001377       1 -0.1576  # F
      22   1  19.4550987247  35.2706619821  32.8819963872       1  0.3275  # C
      23   2  19.0519705923  36.0123207043  32.4138302591       1 -0.1576  # F
      24   2  18.9409361077  35.9271130855  34.1504401852       1 -0.1576  # F
      25   1  19.0627982934  34.3924143790  32.6947429580       1  0.3275  # C
      26   2  18.3203752368  34.0863033313  32.9332135628       1 -0.1576  # F
      27   2  19.6926360619  33.5532161459  32.8534657161       1 -0.1576  # F
      28   1  18.8906999293  33.7846690710  31.4736406598       1  0.3275  # C
      29   2  18.5435617890  33.4619885529  30.7521236240       1 -0.1576  # F
      30   2  18.8430341113  34.5179465628  30.9182728165       1 -0.1576  # F
      31   1  19.7287591903  33.1381723238  30.9201293484       1  0.3275  # C
      32   2  19.3132362452  32.4630185067  29.9223272549       1 -0.1576  # F
      33   2  20.2677533697  33.9335760844  30.5051250631       1 -0.1576  # F
      34   1  20.2568366589  32.9326763721  31.7195086109       1  0.3275  # C
      35   2  20.5742853913  32.2345628255  32.2243230507       1 -0.1576  # F
      36   2  19.4364648610  32.3122374069  32.3404754467       1 -0.1576  # F
      37   1  20.8517129399  33.7277949301  31.9237072025       1  0.3275  # C
      38   2  20.4499933860  34.3948772370  32.4596806886       1 -0.1576  # F
      39   2  21.9598709092  33.8775358796  31.4757754768       1 -0.1576  # F
      40   1  21.0868560892  32.9417750623  32.7296822536       1  0.3275  # C
      41   2  20.8609306610  31.7773529170  32.9333816493       1 -0.1576  # F
      42   2  21.7807369007  32.2528137119  31.7464723748       1 -0.1576  # F
      43   1  20.8143715322  33.2991008568  33.8538868150       1  0.2465  # C
      44   2  19.7482102287  32.8849878915  33.6249004861       1 -0.1336  # F
      45   2  21.3461831897  33.2631251382  34.7913002080       1 -0.1336  # F
      46   1  20.9039403400  34.5373363520  33.9982969866       1  0.1317  # C
      47   2  21.7506703778  34.9257207138  34.7319867868       1 -0.1193  # F
      48   3  21.1091371269  34.9077884961  33.0724569961       1 -0.3109  # Oc
      49   1  22.1111510501  35.0746886602  32.1634414519       1  0.4954  # C
      50   2  22.6063788311  33.7826709926  32.5273963430       1 -0.1280  # F
      51   2  21.6346512418  35.7715163312  31.6171429773       1 -0.1559  # F
      52   1  22.7751433392  35.7108226337  31.6779030550       1  0.0465  # C
      53   2  22.6819981816  36.7134374592  31.9846608388       1 -0.1122  # F
      54   1  23.7103635300  35.7554167147  31.0371640793       1  0.5842  # C
      55   2  23.6362120139  34.7595531092  30.7600421799       1 -0.1563  # F
      56   2  24.5949642095  36.1022767616  31.3631701679       1 -0.1736  # F
      57   2  23.8238083506  36.7405652412  30.7388534771       1 -0.1844  # F
      58   3  23.5462442796  35.2772354541  32.2834602818       1 -0.2516  # Oc
      59   1  24.4394697718  34.6603211315  32.3561200872       1  0.4557  # C
      60   2  23.5405435050  33.9960764961  32.7007728561       1 -0.1368  # F
      61   2  24.8593048563  34.3301867834  31.6124878301       1 -0.1393  # F
      62   1  25.2037740299  35.1911151693  32.8512182961       1  0.1062  # C
      63   2  25.9526407185  36.3440645078  32.6511835775       1 -0.1457  # F
      64   2  26.0466188283  34.6055873311  33.2586947576       1 -0.1482  # F
      65   4  24.6040505589  35.0716270040  33.8058108485       1  1.1345  # S
      66   5  24.2990195310  34.3984168676  33.7927593529       1 -0.6371  # Os
      67   5  23.8798944057  35.5655421621  33.7194378506       1 -0.6371  # Os
      68   5  25.0673550394  35.6130726877  34.6048239271       1 -0.6371  # Os
      69   6  26.1451995426  35.7660116300  35.4036008504       1  1.0000  # Na
      70   1  20.5274047907  34.6821253525  35.0637852266       1  0.3275  # C
      71   2  19.5397828797  34.6287977691  35.2797317240       1 -0.1576  # F
      72   2  21.3434211234  34.1989253822  35.1980618608       1 -0.1576  # F
      73   1  20.7605111098  35.4318709994  35.5919833093       1  0.3275  # C
      74   2  21.5198759669  36.4397806624  35.5155893619       1 -0.1576  # F
      75   2  19.8608237910  36.2992530564  36.0747267197       1 -0.1576  # F
      76   1  21.2978834403  34.4785519131  36.1458671413       1  0.3275  # C
      77   2  20.6374081300  33.8955965851  36.7452625342       1 -0.1576  # F
      78   2  22.0027413967  34.6738267282  35.6268893403       1 -0.1576  # F
      79   1  20.9916981678  34.7804248791  36.9739154934       1  0.3275  # C
      80   2  21.4509035076  35.5718478361  36.9715643789       1 -0.1576  # F
      81   2  20.0728134722  35.0048644952  37.2204894715       1 -0.1576  # F
      82   1  20.8173116757  34.5740473124  38.2016509178       1  0.3275  # C
      83   2  21.7378268486  33.9661874999  38.2060654939       1 -0.1576  # F
      84   2  20.8876410427  35.3350292052  38.9350081735       1 -0.1576  # F
      85   1  19.7005420749  34.4540442969  38.3141085214       1  0.3275  # C
      86   2  19.1416631478  34.0974319966  39.5217703494       1 -0.1576  # F
      87   2  20.0535320874  33.4242774722  37.9949084574       1 -0.1576  # F
      88   1  19.2101477810  35.4466666299  37.1568985535       1  0.3275  # C
      89   2  19.4396613160  36.6036822322  37.0180938435       1 -0.1576  # F
      90   2  19.5966473832  35.1710457592  36.4489547031       1 -0.1576  # F
      91   1  18.3890946838  34.4038469724  36.6705694573       1  0.3275  # C
      92   2  18.8461123948  33.2570923349  36.7537399205       1 -0.1576  # F
      93   2  18.4176675979  34.6508870594  37.7183195940       1 -0.1576  # F
      94   1  17.5171519178  34.3901819785  36.1481695200       1  0.3275  # C
      95   2  17.1459120719  35.3669218703  35.1288830372       1 -0.1576  # F
      96   2  17.4312327456  35.3207561181  36.1350920416       1 -0.1576  # F
      97   1  16.4060592196  34.0774172965  36.2256866962       1  0.3275  # C
      98   2  15.3671052579  33.7106533391  35.6700337864       1 -0.1576  # F
      99   2  16.3163786637  34.5666976350  37.1982534822       1 -0.1576  # F
     100   1  17.0760658320  33.1525469059  36.3972127906       1  0.3275  # C
     101   2  17.9298980161  33.2368462712  35.8503386492       1 -0.1576  # F
     102   2  16.8173211156  32.0788776832  36.1141715880       1 -0.1576  # F
     103   1  17.1588583925  33.1913457693  37.7904430771       1  0.3275  # C
     104   2  16.1535152657  32.4994403669  37.7130066431       1 -0.1576  # F
     105   2  17.3411326477  32.2159084144  37.9053573542       1 -0.1576  # F
     106   1  18.1010424454  33.7986915288  38.4340146098       1  0.3275  # C
     107   2  18.8436128018  33.1572113010  37.8180222759       1 -0.1576  # F
     108   2  18.5821545778  33.8582427047  39.2255277635       1 -0.1576  # F
     109   1  17.3252254398  34.6232744287  37.7061745290       1  0.3275  # C
     110   2  16.5954120169  34.2436191978  38.1124589844       1 -0.1576  # F
     111   2  17.3141097490  35.9627179521  37.3951119785       1 -0.1576  # F
     112   1  17.1632076668  33.9155698496  36.9210380818       1  0.2465  # C
     113   2  16.4723533007  32.8299015642  37.1055453342       1 -0.1336  # F
     114   2  16.1447661474  34.8053445272  36.7219180207       1 -0.1336  # F
     115   1  18.3320193002  33.8646812979  35.9222811429       1  0.1317  # C
     116   2  18.5736231857  32.9564728166  35.9693451530       1 -0.1193  # F
     117   3  19.3023481037  33.8514425488  35.8901535702       1 -0.3109  # Oc
     118   1  20.0534881902  33.2502208430  36.0247396182       1  0.4954  # C
     119   2  19.8713165803  33.0111761592  37.0820466824       1 -0.1280  # F
     120   2  21.0409968550  33.5665675703  36.0262184995       1 -0.1559  # F
     121   1  20.3337717729  32.4693223021  35.2668921888       1  0.0465  # C
     122   2  19.2444239190  32.1108536388  35.0933536617       1 -0.1122  # F
     123   1  20.9446128792  31.5424010304  36.0071729090       1  0.5842  # C
     124   2  22.0308339318  32.7322199169  35.7324522762       1 -0.1563  # F
     125   2  20.4649672077  31.6029315467  36.8257536106       1 -0.1736  # F
     126   2  21.1926949194  30.6880180316  35.6507753856       1 -0.1844  # F
     127   3  20.9912868557  32.3282633633  34.7747869606       1 -0.2516  # Oc
     128   1  21.3982095296  31.5556569831  35.0459305017       1  0.4557  # C
     129   2  19.9357865612  31.1186070688  35.2033671843       1 -0.1368  # F
     130   2  22.2286022361  31.7728130892  36.0689660543       1 -0.1393  # F
     131   1  21.7908440390  31.5682431193  34.2766323052       1  0.1062  # C
     132   2  21.3744510959  30.7159971992  34.0579654491       1 -0.1457  # F
     133   2  23.2429469872  31.8343818329  34.2564191172       1 -0.1482  # F
     134   4  21.3433277224  32.4346068372  33.6433665126       1  1.1345  # S
     135   5  20.4414458487  32.9542325919  33.0485494011       1 -0.6371  # Os
     136   5  20.5753580362  31.9157620312  33.7743040096       1 -0.6371  # Os
     137   5  22.4831868686  32.6603178549  32.8671028417       1 -0.6371  # Os
     138   6  23.2609153613  32.8170761678  33.3319589300       1  1.0000  # Na
     139   1  18.0268320073  34.4966158029  35.1007387000       1  0.3275  # C
     140   2  17.9765120147  35.0016409196  34.5367971965       1 -0.1576  # F
     141   2  17.4135890180  34.3140532488  34.5087044726       1 -0.1576  # F
     142   1  18.6311389339  35.6494857487  35.5097890350       1  0.3275  # C
     143   2  17.9480286676  36.1637750215  34.9811229387       1 -0.1576  # F
     144   2  19.7661960455  36.0642545343  35.2903930524       1 -0.1576  # F
     145   1  18.4372626571  35.9637964485  36.1830259353       1  0.3275  # C
     146   2  17.4639934095  35.9132598632  35.7626152852       1 -0.1576  # F
     147   2  18.5681994418  35.7483959229  36.8339404034       1 -0.1576  # F
     148   1  17.8233784395  36.6595924815  36.8280742679       1  0.3275  # C
     149   2  17.0673398515  36.7636209880  36.5418145479       1 -0.1576  # F
     150   2  18.4356421796  37.2152268699  37.1552105432       1 -0.1576  # F
     151   1  17.8791260740  36.6200959075  38.0117535472       1  0.3275  # C
     152   2  16.8280312758  36.8092104269  38.0993040418       1 -0.1576  # F
     153   2  18.0928325831  35.4826229642  38.2727571249       1 -0.1576  # F
     154   1  18.6135658439  36.9749835421  38.8521492715       1  0.3275  # C
     155   2  18.1141924556  37.4031532361  39.8524310186       1 -0.1576  # F
     156   2  19.4798740048  36.6936665916  38.9920403791       1 -0.1576  # F
     157   1  19.0716268136  38.0467786170  38.5204484313       1  0.3275  # C
     158   2  18.7974345148  38.9675146989  37.9447144399       1 -0.1576  # F
     159   2  19.3876432495  37.5941470611  39.2755852620       1 -0.1576  # F
     160   1  19.6840410368  38.4509374888  39.2469815423       1  0.3275  # C
     161   2  19.2927915043  39.0178618068  39.8474421134       1 -0.1576  # F
     162   2  20.5964489188  39.2585792315  38.7228427105       1 -0.1576  # F
     163   1  19.8305138587  37.5414621814  40.4111182334       1  0.3275  # C
     164   2  20.3892230831  37.4532223385  41.1439106224       1 -0.1576  # F
     165   2  19.7182704639  38.4225166286  40.9535020136       1 -0.1576  # F
     166   1  18.9389937001  36.6905258779  40.9916821670       1  0.3275  # C
     167   2  18.1554355150  37.1753930752  41.1041975066       1 -0.1576  # F
     168   2  19.1494625607  35.5246687253  40.6969638110       1 -0.1576  # F
     169   1  18.0615531990  36.1284168487  41.9392893277       1  0.3275  # C
     170   2  17.4583793865  35.7814192397  41.4081709672       1 -0.1576  # F
     171   2  17.6902700476  36.2456970595   0.1805198485       1 -0.1576  # F
     172   1  17.6130360593  36.9929068977  42.4553899157       1  0.3275  # C
     173   2  17.6890842256  38.0860591823  41.8198901692       1 -0.1576  # F
     174   2  16.7462228532  36.5542893597  42.9533945759       1 -0.1576  # F
     175   1  17.6469532230  37.3693435721   0.3412707259       1  0.3275  # C
     176   2  17.0764670461  37.6628775346   1.3373431367       1 -0.1576  # F
     177   2  17.1303992431  38.0899993629  42.5012417027       1 -0.1576  # F
     178   1  18.4515154049  37.6315798343   0.3868858196       1  0.3275  # C
     179   2  18.5972807317  38.2036436373   1.0279751487       1 -0.1576  # F
     180   2  19.2303244873  36.6670992048  43.0738879497       1 -0.1576  # F
     181   1  19.7962460747  37.8626940279   0.7598182835       1  0.2465  # C
     182   2  19.3494228855  36.4721321217   0.8837389075       1 -0.1336  # F
     183   2  19.2152239896  38.9380658357   1.3732082582       1 -0.1336  # F
     184   1  20.9813837714  38.1470682977   1.1475628374       1  0.1317  # C
     185   2  21.5774524746  36.9345983852   1.4400677525       1 -0.1193  # F
     186   3  20.7490291700  39.1222006994   1.7863153418       1 -0.3109  # Oc
     187   1  20.6502822619  39.8765988205   2.8545846886       1  0.4954  # C
     188   2  20.7286470613  38.9410312938   3.4179992436       1 -0.1280  # F
     189   2  19.9235224241  39.8097178379   3.4238697582       1 -0.1559  # F
     190   1  20.6284900972  40.5030429732   1.9304992924       1  0.0465  # C
     191   2  20.0176378557  41.2229407092   1.4132089354       1 -0.1122  # F
     192   1  19.3436904868  40.4840231956   2.2043929295       1  0.5842  # C
     193   2  19.1963472838  41.9645480879   2.5782867772       1 -0.1563  # F
     194   2  18.5452989495  40.1065739661   1.5020241329       1 -0.1736  # F
     195   2  19.2881014097  40.0247216482   2.8812414026       1 -0.1844  # F
     196   3  21.2752580422  41.0994598986   2.3967512184       1 -0.2516  # Oc
     197   1  22.4171063644  40.9194097353   2.7701621746       1  0.4557  # C
     198   2  22.1935686899  40.1270159109   3.3357537448       1 -0.1368  # F
     199   2  22.4740293287  41.8256771447   3.4945141246       1 -0.1393  # F
     200   1  22.7011899537  40.8355436452   1.9489788765       1  0.1062  # C
     201   2  22.9820344700  41.6844865116   1.0098616261       1 -0.1457  # F
     202   2  21.7155682865  39.6630647431   2.4456290532       1 -0.1482  # F
     203   4  23.5681139151  41.0931398297   1.9917767369       1  1.1345  # S
     204   5  23.5161054613  42.2337217910   2.4108868749       1 -0.6371  # Os
     205   5  24.3184702001  40.2848056927   2.7977517691       1 -0.6371  # Os
     206   5  24.8357169717  41.3403776380   1.6013200837       1 -0.6371  # Os
     207   6  24.6615943362  41.4162136384   0.6804107999       1  1.0000  # Na
     208   1  22.2438662522  38.0967671870   0.6844549526       1  0.3275  # C
     209   2  21.8909460785  37.7569368867  42.6686977935       1 -0.1576  # F
     210   2  22.6759616880  37.8349297499   1.9280612225       1 -0.1576  # F
     211   1  22.3575929641  39.0032898452   0.8687463668       1  0.3275  # C
     212   2  23.1531811973  39.5914513742   1.0410543234       1 -0.1576  # F
     213   2  22.1954391252  38.3834948289  42.9492362319       1 -0.1576  # F
     214   1  21.2720021981  39.3176775887   0.6763200091       1  0.3275  # C
     215   2  20.9077736052  39.2119252367  42.7879818804       1 -0.1576  # F
     216   2  19.9052924755  39.3971383565   1.2799836844       1 -0.1576  # F
     217   1  22.0063242415  40.1870700188   0.6345906053       1  0.3275  # C
     218   2  22.4850112336  39.7302093097  42.7691720941       1 -0.1576  # F
     219   2  22.1688197307  40.7500435799   1.1570237205       1 -0.1576  # F
     220   1  21.8657984492  41.2295950456  42.7469774597       1  0.3275  # C
     221   2  22.5878426126  40.9226123637   0.2560283474       1 -0.1576  # F
     222   2  21.5441934123  40.9551033116  42.0154470135       1 -0.1576  # F
     223   1  21.3551398511  41.9474573594  42.5181537377       1  0.3275  # C
     224   2  20.8840475240  42.4575392392   0.1089533219       1 -0.1576  # F
     225   2  22.1259854887  42.5192791899  42.3222127610       1 -0.1576  # F
     226   1  20.6426402874  41.3987182168  42.7715145122       1  0.3275  # C
     227   2  20.6115008978  40.9209415459   0.7331775063       1 -0.1576  # F
     228   2  19.6626240660  40.6738820193  42.4889033567       1 -0.1576  # F
     229   1  19.7608910781  42.2885511029  42.2619172417       1  0.3275  # C
     230   2  18.6101132847  42.0618069390  42.8495652168       1 -0.1576  # F
     231   2  20.1071279218  41.5548417906  41.4785561870       1 -0.1576  # F
     232   1  19.0304933711  42.8544439362  41.0833165180       1  0.3275  # C
     233   2  18.4764764315   0.5628906409  41.3628594472       1 -0.1576  # F
     234   2  18.6041693347  41.6596886332  40.6332484952       1 -0.1576  # F
     235   1  18.9493858365   0.2857103009  40.1624752385       1  0.3275  # C
     236   2  18.2897337537   0.4609001528  40.4752535595       1 -0.1576  # F
     237   2  18.7681709540   0.0472530203  39.2329575855       1 -0.1576  # F
     238   1  19.8418281836   0.9069958763  39.8532435086       1  0.3275  # C
     239   2  18.8911154782   0.5864758080  38.9834787404       1 -0.1576  # F
     240   2  20.1740727253  43.0585191405  40.3438217509       1 -0.1576  # F
     241   1  21.0343485260   1.4667935803  39.4745822491       1  0.3275  # C
     242   2  21.4693059224   0.4425923266  40.0503857014       1 -0.1576  # F
     243   2  21.2931519773   0.5490010159  38.5916812739       1 -0.1576  # F
     244   1  21.4159185244   2.4740104966  40.4920709599       1  0.3275  # C
     245   2  20.6856902595   2.2479146389  41.3644942301       1 -0.1576  # F
     246   2  22.3106952273   2.3389377197  41.1238843753       1 -0.1576  # F
     247   1  21.0098953134   3.0804966246  41.0473756264       1  0.3275  # C
     248   2  21.2378541010   2.4286783562  42.1028833529       1 -0.1576  # F
     249   2  19.7977160038   2.6929503292  41.0372678579       1 -0.1576  # F
     250   1  21.8862732852   4.3453891519  41.0854970100       1  0.2465  # C
     251   2  22.0528375039   4.0163796744  40.2313564949       1 -0.1336  # F
     252   2  23.0192495834   4.4953557037  41.2832569669       1 -0.1336  # F
     253   1  21.3653636279   5.4166599202  41.4958702892       1  0.1317  # C
     254   2  20.6024486990   5.7453663772  41.2367476965       1 -0.1193  # F
     255   3  21.1772675168   5.1100583956  42.2984936360       1 -0.3109  # Oc
     256   1  20.7473236956   5.9515009198  42.6467485925       1  0.4954  # C
     257   2  19.8764186168   6.3037702551   0.1525583896       1 -0.1280  # F
     258   2  20.5534794859   6.8454378289  42.9680704083       1 -0.1559  # F
     259   1  19.8765913929   5.2552896564  42.3717780464       1  0.0465  # C
     260   2  19.3500920636   5.5874484906   0.4030136329       1 -0.1122  # F
     261   1  20.2847820031   4.6150738368  42.5626165787       1  0.5842  # C
     262   2  21.2807727904   4.0453039568  42.6028078306       1 -0.1563  # F
     263   2  19.3017514776   4.3202641012   0.0664894481       1 -0.1736  # F
     264   2  20.3738885056   3.5001166284  42.2126495625       1 -0.1844  # F
     265   3  19.4057701627   5.0131976928  41.5725856953       1 -0.2516  # Oc
     266   1  19.1883053219   5.5233045288  40.4470463307       1  0.4557  # C
     267   2  19.0532788298   5.5963968902  39.6549242234       1 -0.1368  # F
     268   2  18.3694243786   5.1425078951  40.5754718271       1 -0.1393  # F
     269   1  19.8904688996   6.3234288587  40.7037851394       1  0.1062  # C
     270   2  20.0964479515   6.2982257537  41.6939416463       1 -0.1457  # F
     271   2  19.0886822730   6.7085300704  41.2135879455       1 -0.1482  # F
     272   4  19.3477682329   7.6962953050  40.4203733322       1  1.1345  # S
     273   5  19.0369287929   7.7827482808  39.7963007593       1 -0.6371  # Os
     274   5  20.0765639844   8.9767830862  40.7795438973       1 -0.6371  # Os
     275   5  18.4132672827   7.8177979116  41.3339914696       1 -0.6371  # Os
     276   6  17.7945579156   8.9846332702  42.1686434990       1  1.0000  # Na
     277   1  21.8429973085   6.0957041368  41.0006730196       1  0.3275  # C
     278   2  22.3536546846   5.9573368920  42.2354695459       1 -0.1576  # F
     279   2  21.3760215952   6.1012662074  39.9750046567       1 -0.1576  # F
     280   1  22.5111392655   6.9041330813  40.7901680242       1  0.3275  # C
     281   2  23.6452725779   7.0870708005  40.9806108704       1 -0.1576  # F
     282   2  22.4734304144   7.6471282046  39.7492869751       1 -0.1576  # F
     283   1  21.7859428532   7.4569390377  41.1778326453       1  0.3275  # C
     284   2  22.0999460602   8.2777657792  40.2843480871       1 -0.1576  # F
     285   2  20.9612915062   7.2870248388  40.9760769672       1 -0.1576  # F
     286   1  22.4157388829   6.9079919252  41.6162438613       1  0.3275  # C
     287   2  23.3389887266   7.4494649332  41.6883397116       1 -0.1576  # F
     288   2  22.9031248067   6.8356629061  43.0544121555       1 -0.1576  # F
     289   1  22.3241670687   5.6733127824  41.3906141295       1  0.3275  # C
     290   2  22.3625859562   4.9970832228  40.2361703256       1 -0.1576  # F
     291   2  23.6462880819   5.7825968481  41.6369795705       1 -0.1576  # F
     292   1  21.1187902491   6.0384526832  41.8013589586       1  0.3275  # C
     293   2  20.3719066136   5.3549305762  41.8061278844       1 -0.1576  # F
     294   2  21.3519545862   6.2031585133  42.9707808619       1 -0.1576  # F
     295   1  21.2632380265   7.1085366149  41.5143098073       1  0.3275  # C
     296   2  20.3731889754   7.2632749480  41.3654745025       1 -0.1576  # F
     297   2  21.6967478456   7.4539550220  40.3877831809       1 -0.1576  # F
     298   1  21.7590460930   7.9180257450  42.2041936951       1  0.3275  # C
     299   2  22.5891014321   8.5679777907  42.3183724511       1 -0.1576  # F
     300   2  20.5930221063   8.6050469751  42.1125603237       1 -0.1576  # F
     301   1  22.3019982493   7.7505910959   0.5012201488       1  0.3275  # C
     302   2  22.7073767953   8.5090835667   0.6292934375       1 -0.1576  # F
     303   2  21.5781994056   8.2866082251   1.0796008980       1 -0.1576  # F
     304   1  22.7074247771   6.9878895416   0.8974327326       1  0.3275  # C
     305   2  23.6932322102   6.4615244698   0.4937093741       1 -0.1576  # F
     306   2  22.1401605460   6.0051868270   1.2290839274       1 -0.1576  # F
     307   1  22.5216336757   7.2548143154   2.0819383406       1  0.3275  # C
     308   2  23.3763750301   7.5620207672   2.5884470838       1 -0.1576  # F
     309   2  21.6708558381   6.3655165828   2.2078076691       1 -0.1576  # F
     310   1  22.0495930771   7.9010846620   2.3974655229       1  0.3275  # C
     311   2  20.5494072872   8.2370974272   2.3707291182       1 -0.1576  # F
     312   2  22.4250970478   8.3010914089   3.2742269360       1 -0.1576  # F
     313   1  22.6106351208   8.7681185674   1.9849726117       1  0.3275  # C
     314   2  22.0936806163   9.6831926484   1.3496518763       1 -0.1576  # F
     315   2  23.6770006231   9.0901320250   2.4691207055       1 -0.1576  # F
     316   1  22.5728506740   9.5435005635   2.5345966499       1  0.3275  # C
     317   2  23.2728804884   9.6400541271   3.1771754561       1 -0.1576  # F
     318   2  22.5198099834   9.3492042246   1.1537527568       1 -0.1576  # F
     319   1  21.8677351588   9.9918960671   2.6637685349       1  0.2465  # C
     320   2  21.4614815662  10.6901801976   1.4846808803       1 -0.1336  # F
     321   2  22.8533364473  10.2145679391   2.9716348008       1 -0.1336  # F
     322   1  20.9345377261  10.0463413053   3.8911459598       1  0.1317  # C
     323   2  20.8922304498   8.9275586557   3.6869691064       1 -0.1193  # F
     324   3  20.0506127597  10.4169814720   3.8722413652       1 -0.3109  # Oc
     325   1  20.2958979152  10.8521941326   3.1796424565       1  0.4954  # C
     326   2  20.2410693547  10.2267269666   2.3516099408       1 -0.1280  # F
     327   2  21.3391257200  11.4026635154   3.0088927441       1 -0.1559  # F
     328   1  19.3397327900  11.4926523894   3.3952375549       1  0.0465  # C
     329   2  18.7859026835  11.3552964752   2.4073474166       1 -0.1122  # F
     330   1  18.9004176902  10.8543383313   3.7998643696       1  0.5842  # C
     331   2  18.8367858303   9.7845178080   4.0227022126       1 -0.1563  # F
     332   2  17.8255481455  11.2214043518   3.9862152118       1 -0.1736  # F
     333   2  19.4793513753  10.4330469122   5.0649469567       1 -0.1844  # F
     334   3  19.2907998489  12.3693701904   3.5927797897       1 -0.2516  # Oc
     335   1  18.4290182390  12.8483925550   4.5631143774       1  0.4557  # C
     336   2  18.9984468740  13.4438889063   5.2191890735       1 -0.1368  # F
     337   2  18.5408896904  13.8696589143   3.8392517407       1 -0.1393  # F
     338   1  18.0994675776  12.4794466419   4.3973191036       1  0.1062  # C
     339   2  17.5660256710  11.4520747551   5.1551032928       1 -0.1457  # F
     340   2  18.9837991527  12.5537125735   5.1857516283       1 -0.1482  # F
     341   4  17.6950106900  12.5096826008   3.5447017728       1  1.1345  # S
     342   5  16.3911308380  12.7064957770   4.1579567791       1 -0.6371  # Os
     343   5  17.9935216245  11.5238997111   2.9186174584       1 -0.6371  # Os
     344   5  17.0623166119  12.8940181092   2.8304371565       1 -0.6371  # Os
     345   6  17.6110547488  12.3459260374   2.0879705527       1  1.0000  # Na
     346   1  21.4036971165  11.0108079730   4.3100695874       1  0.3275  # C
     347   2  22.3083420002  11.3333374167   3.4423895653       1 -0.1576  # F
     348   2  20.5562787644  10.9533141936   4.2867340628       1 -0.1576  # F
     349   1  21.5826132904  11.6180780138   5.1037368054       1  0.3275  # C
     350   2  20.7918699917  11.0916356267   6.0115582243       1 -0.1576  # F
     351   2  22.4349231121  12.1940547999   5.1433602040       1 -0.1576  # F
     352   1  21.1488797144  12.7587994706   5.1582546750       1  0.3275  # C
     353   2  20.4294988320  12.7856865526   5.7483354861       1 -0.1576  # F
     354   2  22.5297284715  13.4869364718   5.3020265039       1 -0.1576  # F
     355   1  20.7201964795  13.4118267911   4.3887485081       1  0.3275  # C
     356   2  19.9763039525  13.3233834308   3.6242362124       1 -0.1576  # F
     357   2  19.9678804752  13.9375643472   4.4172533345       1 -0.1576  # F
     358   1  21.5876564662  14.2316989911   4.5748681404       1  0.3275  # C
     359   2  22.0320275920  13.9508702798   3.6227928649       1 -0.1576  # F
     360   2  21.0671698445  15.2434384309   4.4118127016       1 -0.1576  # F
     361   1  22.1973031616  14.8523308344   5.0230953656       1  0.3275  # C
     362   2  22.8889593087  14.1262508225   5.0524496544       1 -0.1576  # F
     363   2  22.0734761385  15.0605962167   4.3798302829       1 -0.1576  # F
     364   1  22.2326414275  15.9688607646   5.6369674422       1  0.3275  # C
     365   2  22.0737962926  15.9588617670   6.5812211285       1 -0.1576  # F
     366   2  22.8016359159  17.0456870997   6.0556265484       1 -0.1576  # F
     367   1  21.8755011321  16.6862213487   5.0314112345       1  0.3275  # C
     368   2  22.6477936726  17.3819193877   4.9116376761       1 -0.1576  # F
     369   2  21.3568105046  16.8857845331   5.5805595071       1 -0.1576  # F
     370   1  21.5237291878  16.9643810479   3.9428870505       1  0.3275  # C
     371   2  22.3856109831  17.4195669638   3.5598758509       1 -0.1576  # F