LAMMPS output created by EMC v9.4.4, build Jul 30 2020 09:28:04

        7364  atoms
6447 bonds
10220 angles
13377 dihedrals

           8  atom types
           7  bond types
          12  angle types
          14  dihedral types

             0    41.91517271  xlo xhi
             0    41.91517271  ylo yhi
             0    41.91517271  zlo zhi

Masses

       1   12.01115  # C
       2   18.99840  # F
       3   15.99940  # GFOc
       4   32.06400  # GGS
       5   15.99940  # GOs      
	   6    22.990 	 # Na
       7    1.00797  # WH
       8    15.99940 # WO

Atoms

1 1 1 0.3275 24.8020280064 36.5983080938 26.6273977219 # C
2 1 2 -0.1576 25.6242000423 36.8834506019 26.0286417770 # F
3 1 2 -0.1576 24.0257206661 37.0222629930 25.8675314984 # F
4 1 1 0.3275 23.6502507750 37.0020558912 27.0685605948 # C
5 1 2 -0.1576 23.5495529992 37.8608482106 27.5573095295 # F
6 1 2 -0.1576 23.8915151654 36.2649484283 28.1315236591 # F
7 1 1 0.3275 22.4901688203 36.3810241914 27.5179653764 # C
8 1 2 -0.1576 21.9953119938 34.9566344898 28.4506459403 # F
9 1 2 -0.1576 22.6881588902 35.9497449806 26.7059417423 # F
10 1 1 0.3275 21.7001901845 37.2130329739 27.6844843579 # C
11 1 2 -0.1576 21.3309802652 36.9055158098 26.5831048553 # F
12 1 2 -0.1576 21.3019440112 37.5982967601 28.6686017880 # F
13 1 1 0.3275 21.2529137827 38.1015835334 27.0383067755 # C
14 1 2 -0.1576 22.2587829017 38.1793917730 26.5372210447 # F
15 1 2 -0.1576 19.9526369970 38.0844348263 27.0290521518 # F
16 1 1 0.3275 21.4120882171 39.0618517598 27.3585225057 # C
17 1 2 -0.1576 20.0432606006 39.2473563250 27.3329124358 # F
18 1 2 -0.1576 22.0685134044 39.3062761624 28.3689756865 # F
19 1 1 0.3275 22.1295635072 39.3157941331 26.3638704628 # C
20 1 2 -0.1576 22.0627777887 40.2401001745 26.0574302977 # F
21 1 2 -0.1576 22.2742207374 39.2649260934 25.2327235141 # F
22 1 1 0.3275 23.1581827262 38.5254358128 26.5404412928 # C
23 1 2 -0.1576 24.2816728951 38.3237387743 26.5083569978 # F
24 1 2 -0.1576 23.8535733551 38.9462944588 26.4137580182 # F
25 1 1 0.3275 22.8698201538 37.6993147322 25.9383560180 # C
26 1 2 -0.1576 22.9385703975 36.7372896191 26.2336507181 # F
27 1 2 -0.1576 22.3121596641 37.3651197940 26.5489669668 # F
28 1 1 0.3275 22.3530414747 37.8641380356 25.1243642397 # C
29 1 2 -0.1576 22.3122314774 38.6676036224 24.5385055806 # F
30 1 2 -0.1576 21.8572784841 38.2274366107 25.8461867769 # F
31 1 1 0.3275 21.5397333602 36.6917365228 24.5610371598 # C
32 1 2 -0.1576 22.2076753449 35.7741858058 24.3289479631 # F
33 1 2 -0.1576 21.5439823962 35.5778882976 24.3543182931 # F
34 1 1 0.3275 20.7655647336 37.0978706840 24.1959977599 # C
35 1 2 -0.1576 22.1209547105 37.1667467586 23.7567521206 # F
36 1 2 -0.1576 20.6358900054 37.7973642994 25.0669878269 # F
37 1 1 0.3275 20.1961677078 36.9127918730 23.1065990952 # C
38 1 2 -0.1576 20.1715123215 37.9269637810 22.3749092322 # F
39 1 2 -0.1576 19.9835741893 36.1766627990 22.7200614684 # F
40 1 1 0.3275 19.4415556654 36.4719181589 23.9881896520 # C
41 1 2 -0.1576 20.1333798946 36.5614642843 25.4310373962 # F
42 1 2 -0.1576 19.5250760536 35.5289062766 24.1931288597 # F
43 1 1 0.2465 18.2769872921 36.2837268820 23.9158095875 # C
44 1 2 -0.1336 17.7862316590 35.3710679539 23.6955334715 # F
45 1 2 -0.1336 17.6048956191 36.5115571751 23.1424018469 # F
46 1 1 0.1317 18.2629465770 37.0428819806 24.6674697985 # C
47 1 2 -0.1193 17.5719348218 37.0500260281 25.6950321624 # F
48 1 3 -0.3109 17.3545105290 37.5016112478 23.8733128185 # GFOc
49 1 1 0.4954 17.8426141859 37.4374428569 22.9559546697 # C
50 1 2 -0.1280 19.1652317348 36.5882800619 23.4752748467 # F
51 1 2 -0.1559 17.1009739124 37.2950686974 23.0917719656 # F
52 1 1 0.0465 18.2170319358 37.8726962509 22.2363469102 # C
53 1 2 -0.1122 18.6031772198 38.2669721915 23.4590630015 # F
54 1 1 0.5842 19.0052936654 37.7789460308 21.7777521571 # C
55 1 2 -0.1563 19.6523932338 38.6897074556 21.6133735792 # F
56 1 2 -0.1736 19.0120070446 36.5865039954 22.5242729904 # F
57 1 2 -0.1844 18.0400124799 37.7069882553 20.8104505204 # F
58 1 3 -0.2516 17.4453789850 38.2281942946 21.9327004592 # GFOc
59 1 1 0.4557 17.2078926362 38.7468591056 21.0195813153 # C
60 1 2 -0.1368 16.2453949636 39.3832155246 21.4783666442 # F
61 1 2 -0.1393 16.1293951856 38.1021496148 20.5476169820 # F
62 1 1 0.1062 18.0914145115 38.5191929246 20.2132573983 # C
63 1 2 -0.1457 18.5292570354 39.1854068495 20.8424890047 # F
64 1 2 -0.1482 18.9499783429 38.3303922846 19.5349066174 # F
65 1 4 1.1345 17.6765129450 37.5799073191 19.6245372489 # GGS
66 1 5 -0.6371 17.0673091032 36.6194357136 19.8365336088 # GOs
67 1 5 -0.6371 17.5690133307 37.4086301691 18.5255497109 # GOs
68 1 5 -0.6371 19.0459997474 37.2312526545 19.7028488354 # GOs
69 1 6 1.0000 20.2171910768 37.1584195691 19.2097647299 # Na
70 1 1 0.3275 18.9519986826 37.8786022939 24.4933045583 # C
71 1 2 -0.1576 18.5371298733 38.7461937058 25.5314648121 # F
72 1 2 -0.1576 19.8391074018 37.6597023689 24.4829964771 # F
73 1 1 0.3275 19.5793014128 38.5991821180 23.5560003999 # C
74 1 2 -0.1576 20.4707675269 38.0950833362 23.1594419089 # F
75 1 2 -0.1576 19.2257521040 38.9076640624 22.7368815189 # F
76 1 1 0.3275 20.0248517693 39.2659105979 23.9458354229 # C
77 1 2 -0.1576 19.3631985168 40.1869329848 23.9974815232 # F
78 1 2 -0.1576 20.7697188812 39.9070075361 23.7974659522 # F
79 1 1 0.3275 19.7170481740 38.7815773720 24.9964407676 # C
80 1 2 -0.1576 20.8634104588 38.9684389572 25.1188858174 # F
81 1 2 -0.1576 20.4401913679 38.3451272244 25.6292791120 # F
82 1 1 0.3275 19.0483633447 38.4171161739 26.0980672506 # C
83 1 2 -0.1576 17.8003964432 38.1518026247 25.5733619122 # F
84 1 2 -0.1576 19.2116757083 37.6097108364 26.3930374205 # F
85 1 1 0.3275 18.8205312814 38.7243121674 26.9610750123 # C
86 1 2 -0.1576 19.3596909197 37.8918937706 27.9407226176 # F
87 1 2 -0.1576 17.7630572000 38.1447075117 27.3046901985 # F
88 1 1 0.3275 19.5281255896 39.9877301058 27.4762941482 # C
89 1 2 -0.1576 19.5307081886 40.6589507998 26.2539028170 # F
90 1 2 -0.1576 19.6452843574 39.2370699002 28.7590356176 # F
91 1 1 0.3275 20.2360109833 40.9054559572 28.3440651467 # C
92 1 2 -0.1576 21.3961559297 41.1798460954 27.3262921756 # F
93 1 2 -0.1576 20.4782463265 40.6245138819 29.5269779939 # F
94 1 1 0.3275 20.7196071234 41.8947181146 28.6923961920 # C
95 1 2 -0.1576 20.1224625895 42.7057242332 28.6519926755 # F
96 1 2 -0.1576 21.9292685559 41.6081149135 28.2969649483 # F
97 1 1 0.3275 20.8020854440 42.0934156002 29.4851758201 # C
98 1 2 -0.1576 19.9946732650 42.0133042552 30.2045814478 # F
99 1 2 -0.1576 21.4209507989 43.5024182149 29.7674567189 # F
100 1 1 0.3275 21.5567624000 41.2322406253 30.0703074675 # C
101 1 2 -0.1576 22.0029322521 40.7799233556 31.0136042054 # F
102 1 2 -0.1576 21.6599647976 40.5382674966 29.4018623078 # F
103 1 1 0.3275 22.3969703535 41.7053532265 29.2805791641 # C
104 1 2 -0.1576 22.9063504050 40.9446999352 28.3899926527 # F
105 1 2 -0.1576 23.3730144783 41.7455731525 29.9769708380 # F
106 1 1 0.3275 22.5964900187 42.5674255241 28.4886965533 # C
107 1 2 -0.1576 21.8136990900 43.1396940859 28.0041680138 # F
108 1 2 -0.1576 22.8808506028 42.0602841030 27.2812366069 # F
109 1 1 0.3275 23.5972217134 43.1423792197 28.9709654688 # C
110 1 2 -0.1576 23.9600066688 43.0218433742 29.9596416908 # F
111 1 2 -0.1576 23.5103647579 44.0453362955 28.4826269734 # F
112 1 1 0.2465 24.0383798297 42.6446971256 27.8952682013 # C
113 1 2 -0.1336 24.0476514435 43.6487801813 27.4662910738 # F
114 1 2 -0.1336 23.6902109852 41.3168071411 28.6396565602 # F
115 1 1 0.1317 24.0971898088 42.5172942082 26.9105787826 # C
116 1 2 -0.1193 23.0244107911 42.3360893394 26.2183937323 # F
117 1 3 -0.3109 24.9245955333 41.7928515585 26.9038989745 # GFOc
118 1 1 0.4954 25.2405312386 40.5126702617 26.8748425843 # C
119 1 2 -0.1280 26.5692377423 40.7759089203 27.3980352250 # F
120 1 2 -0.1559 25.4270147263 39.9457153195 26.0018590453 # F
121 1 1 0.0465 24.5692931492 40.0205005408 27.9284194582 # C
122 1 2 -0.1122 24.0836328464 41.0076393624 28.1980354698 # F
123 1 1 0.5842 24.0317791539 39.3261399099 27.1734016849 # C
124 1 2 -0.1563 24.9173293306 38.8660906303 26.6870273209 # F
125 1 2 -0.1736 23.7605604214 39.8308769936 26.4435929890 # F
126 1 2 -0.1844 23.2112429701 39.1269504138 27.9912329191 # F
127 1 3 -0.2516 25.1039982998 39.0571526010 28.3334321952 # GFOc
128 1 1 0.4557 25.4298572038 38.4378892562 28.9864046412 # C
129 1 2 -0.1368 25.8168632899 38.9477332208 29.4352507763 # F
130 1 2 -0.1393 25.8546168560 37.0421280016 29.3184996196 # F
131 1 1 0.1062 24.6302057153 38.3555419196 29.7158454700 # C
132 1 2 -0.1457 23.8079037354 38.0503711141 28.8435129562 # F
133 1 2 -0.1482 24.8464191606 39.2654431505 30.5598353728 # F
134 1 4 1.1345 23.9827822912 37.7212054844 30.4216205697 # GGS
135 1 5 -0.6371 24.4476236163 37.6739147870 31.2784488063 # GOs
136 1 5 -0.6371 23.3190053652 38.7073113745 30.8271627933 # GOs
137 1 5 -0.6371 22.8531951726 37.0070665699 30.0757324700 # GOs
138 1 6 1.0000 22.6361568694 36.5003377911 28.9669584826 # Na
139 1 1 0.3275 24.5893639654 43.3684079135 26.9007188245 # C
140 1 2 -0.1576 25.7408706289 42.5330946977 27.1077255409 # F
141 1 2 -0.1576 23.8581572479 44.1075950051 25.7000494815 # F
142 1 1 0.3275 25.1585608182 43.6626284044 27.9808439581 # C
143 1 2 -0.1576 25.2087165674 43.0304549979 28.8864158393 # F
144 1 2 -0.1576 26.2469766945 43.2977417096 28.0147723432 # F
145 1 1 0.3275 24.8962383523 44.8435178551 28.1128954666 # C
146 1 2 -0.1576 25.1420651222 45.9725229427 27.1402970045 # F
147 1 2 -0.1576 26.0196294483 44.9153786118 28.7148111708 # F
148 1 1 0.3275 24.2255567557 44.4868295599 28.7446355317 # C
149 1 2 -0.1576 24.6758418004 43.8266072708 29.3469678690 # F
150 1 2 -0.1576 23.1417914655 44.8207895781 28.9570021488 # F
151 1 1 0.3275 23.9182288794 45.5261226073 28.2023360510 # C
152 1 2 -0.1576 24.3933075665 45.3518048063 27.5276160306 # F
153 1 2 -0.1576 23.0515443513 44.9505494629 28.3605489113 # F
154 1 1 0.3275 24.6449999985 46.1537181064 28.5516174787 # C
155 1 2 -0.1576 24.4253407560 46.2035254309 29.5114979378 # F
156 1 2 -0.1576 25.5074596296 45.3443455459 27.8810144351 # F
157 1 1 0.3275 24.3425975657 47.0677625793 28.1929080880 # C
158 1 2 -0.1576 24.4931654074 46.5682300611 27.3777810964 # F
159 1 2 -0.1576 23.2075229652 47.4043597003 28.5729795867 # F
160 1 1 0.3275 24.8663131122 47.0868231568 28.9759432267 # C
161 1 2 -0.1576 25.3310723289 46.1334246231 29.0143494334 # F
162 1 2 -0.1576 25.9041947398 47.5920119085 29.0681124775 # F
163 1 1 0.3275 24.2611652041 48.2351083366 28.7979131388 # C
164 1 2 -0.1576 23.4113210957 48.1436245740 29.2398970016 # F
165 1 2 -0.1576 24.4549349334 48.3514467582 27.6806404449 # F
166 1 1 0.3275 24.5591438981 49.5681640323 28.5346830628 # C
167 1 2 -0.1576 24.3272157667 49.6084197963 27.4151693206 # F
168 1 2 -0.1576 25.7885986722 49.3953810200 28.4933061547 # F
169 1 1 0.3275 24.3614208191 50.2104778501 29.2772218275 # C
170 1 2 -0.1576 24.6396980145 51.4883152444 29.4467914312 # F
171 1 2 -0.1576 24.6245380278 50.2375299165 30.1732040676 # F
172 1 1 0.3275 24.0321288222 51.0980452551 28.8346430992 # C
173 1 2 -0.1576 23.8997422281 50.1621924436 28.2862099901 # F
174 1 2 -0.1576 25.1535769668 51.3127857700 28.8837125767 # F
175 1 1 0.3275 24.3961671949 52.2654461040 27.9376443631 # C
176 1 2 -0.1576 24.9129793157 52.6854127954 28.7569265696 # F
177 1 2 -0.1576 25.2905649444 52.1564659243 26.9515995840 # F
178 1 1 0.3275 23.4285936718 52.8091353869 28.1617232667 # C
179 1 2 -0.1576 23.0367258745 53.1876025133 27.1096825150 # F
180 1 2 -0.1576 22.6421954484 52.6563781377 28.4217026027 # F
181 1 1 0.2465 23.2349633503 53.3329436804 28.9192774021 # C
182 1 2 -0.1336 22.4733058932 53.7904349600 28.7954756553 # F
183 1 2 -0.1336 23.7050263185 53.7275448256 28.0106349264 # F
184 1 1 0.1317 23.8353975876 53.9784440893 29.8034854514 # C
185 1 2 -0.1193 23.4112018993 54.8822210951 28.9495796398 # F
186 1 3 -0.3109 23.7149859931 53.1560318357 30.2918841076 # GFOc
187 1 1 0.4954 22.5981353153 52.3438346089 30.4546979998 # C
188 1 2 -0.1280 21.9138810290 52.8973308349 31.3616481364 # F
189 1 2 -0.1559 23.3876529190 51.5554814622 31.0144929595 # F
190 1 1 0.0465 22.0254400302 52.2576855568 29.9428186034 # C
191 1 2 -0.1122 23.8010528894 52.5374091782 29.4913727243 # F
192 1 1 0.5842 21.6518080895 51.0414986434 29.4272725579 # C
193 1 2 -0.1563 20.3715122691 51.1168372583 29.9095472985 # F
194 1 2 -0.1736 22.0819200358 49.9445124918 30.1291087929 # F
195 1 2 -0.1844 22.2930511657 50.8464511910 28.5642769145 # F
196 1 3 -0.2516 21.3483269177 53.1319299768 30.4079174678 # GFOc
197 1 1 0.4557 21.3291239854 53.6382137398 31.7496316301 # C
198 1 2 -0.1368 21.4695788702 53.9428131811 32.4022926071 # F
199 1 2 -0.1393 20.3831473413 53.5747393471 31.0349599586 # F
200 1 1 0.1062 22.0836115764 54.0186379932 31.8799732743 # C
201 1 2 -0.1457 22.3564118373 53.4500908744 31.1900372521 # F
202 1 2 -0.1482 22.1563613883 54.6732598155 32.1164326391 # F
203 1 4 1.1345 23.3029562659 54.3231564648 32.7118780551 # GGS
204 1 5 -0.6371 23.6510599103 55.4878548736 33.0370895305 # GOs
205 1 5 -0.6371 23.8132879936 53.2299723187 32.2874238369 # GOs
206 1 5 -0.6371 23.3414565486 53.7639815004 33.9594146815 # GOs
207 1 6 1.0000 22.5456146022 53.3322665163 34.4988266590 # Na
208 1 1 0.3275 24.7045474032 54.3091894899 30.1659371295 # C
209 1 2 -0.1576 24.7165636043 53.8296105257 29.1458073128 # F
210 1 2 -0.1576 25.3574469514 53.8246486047 30.7794133909 # F
211 1 1 0.3275 25.1992474557 55.2408707824 30.7473119433 # C
212 1 2 -0.1576 24.8989573847 55.9929934376 29.5692936305 # F
213 1 2 -0.1576 25.9269070467 54.9531118817 31.2696220949 # F
214 1 1 0.3275 24.8686448074 55.5177144779 31.3904735283 # C
215 1 2 -0.1576 24.6167480878 56.7117220625 31.5126574648 # F
216 1 2 -0.1576 24.3181410502 54.9850142973 31.9067713737 # F
217 1 1 0.3275 26.1596409968 56.0998289236 31.6922562364 # C
218 1 2 -0.1576 25.5312366682 55.5949210146 32.4361397378 # F
219 1 2 -0.1576 26.0564063548 56.9724078087 30.6334864175 # F
220 1 1 0.3275 26.9662242822 56.8345184151 32.1733540930 # C
221 1 2 -0.1576 26.5219043027 57.4358395716 32.8480619426 # F
222 1 2 -0.1576 28.0711671839 56.4382735050 32.9820931788 # F
223 1 1 0.3275 27.4663582933 57.4432228322 31.3594283535 # C
224 1 2 -0.1576 27.3746854085 58.2184281351 31.0494311465 # F
225 1 2 -0.1576 27.8877822343 56.8774360587 30.5523921709 # F
226 1 1 0.3275 28.0391696937 57.2170264584 32.2601797717 # C
227 1 2 -0.1576 27.8821594304 57.3501853021 32.9608502888 # F
228 1 2 -0.1576 28.7903166363 58.1396997813 31.8241334105 # F
229 1 1 0.3275 28.4133185591 56.4168174231 32.1633320524 # C
230 1 2 -0.1576 29.0490132545 56.4638095904 31.3348288105 # F
231 1 2 -0.1576 27.8250180359 55.4607737451 32.0761280512 # F
232 1 1 0.3275 29.1241491586 56.5286781695 33.0158925677 # C
233 1 2 -0.1576 29.5203986470 57.1412595294 32.3848862717 # F
234 1 2 -0.1576 28.8528711308 56.7931384312 33.6302826568 # F
235 1 1 0.3275 30.1422598438 56.2397706183 33.0820101119 # C
236 1 2 -0.1576 31.3296875790 56.0192164527 33.1464279441 # F
237 1 2 -0.1576 30.4784656798 56.9773837331 32.2448765393 # F
238 1 1 0.3275 29.5727617190 55.6242536403 33.8302962187 # C
239 1 2 -0.1576 29.7568939353 54.5456636605 34.0565658769 # F
240 1 2 -0.1576 29.6265813962 55.6236349366 35.1237840803 # F
241 1 1 0.3275 28.4059490003 55.7342361296 33.6663681296 # C
242 1 2 -0.1576 28.4169989904 55.1125063994 33.0523087285 # F
243 1 2 -0.1576 28.2064670421 55.4418069347 34.7315333761 # F
244 1 1 0.3275 27.5633803907 55.7791518380 33.8468780403 # C
245 1 2 -0.1576 27.5995176167 56.4147081657 34.8919310828 # F
246 1 2 -0.1576 27.4187304117 54.7961330683 34.1643819811 # F
247 1 1 0.3275 26.8890927196 56.0843292593 33.1736292271 # C
248 1 2 -0.1576 27.1404632900 55.7268406747 31.8665489298 # F
249 1 2 -0.1576 26.4851319138 56.8144192349 33.0204547285 # F
250 1 1 0.2465 26.6183927007 56.4787758043 31.5397279413 # C
251 1 2 -0.1336 25.9764214110 55.7574758333 31.1134596314 # F
252 1 2 -0.1336 27.0613055017 56.3892775015 30.4701121063 # F
253 1 1 0.1317 26.3876378701 57.2037839216 31.3718680384 # C
254 1 2 -0.1193 26.2784461812 57.3852325485 30.0986240925 # F
255 1 3 -0.3109 25.2499656660 57.5228774967 31.5090682920 # GFOc
256 1 1 0.4954 24.0500692213 57.5070308788 31.7413753433 # C
257 1 2 -0.1280 23.4138358667 58.3654967800 31.8871657341 # F
258 1 2 -0.1559 24.4556974416 56.9036345093 30.7834570821 # F
259 1 1 0.0465 23.6305140357 56.4744851126 31.9615407407 # C
260 1 2 -0.1122 23.0667913470 55.5895269690 31.1198345417 # F
261 1 1 0.5842 24.0561711713 55.7874875007 31.9892945271 # C
262 1 2 -0.1563 23.9019054794 55.3951959835 31.0800343037 # F
263 1 2 -0.1736 24.0248334291 55.0002089006 32.5243551492 # F
264 1 2 -0.1844 24.9334212187 55.8727866866 32.1032383244 # F
265 1 3 -0.2516 23.5590160024 56.7942761058 32.7496486636 # GFOc
266 1 1 0.4557 22.9653021629 57.7574068507 33.1287727409 # C
267 1 2 -0.1368 21.9920601832 57.9208423573 32.8468834018 # F
268 1 2 -0.1393 23.7127825636 58.8164202589 33.3741781270 # F
269 1 1 0.1062 22.7240756733 57.0891383965 34.3100819374 # C
270 1 2 -0.1457 22.3779326251 56.5157399076 33.8738835975 # F
271 1 2 -0.1482 23.2319691619 56.9128765852 34.9242118098 # F
272 1 4 1.1345 22.2253574683 57.5101267202 35.1418134283 # GGS
273 1 5 -0.6371 23.0114682350 58.0155933809 35.4614875910 # GOs
274 1 5 -0.6371 21.5270673279 57.5746050623 34.5764090530 # GOs
275 1 5 -0.6371 21.7770628931 56.5899526106 36.1142688273 # GOs
276 1 6 1.0000 21.0857945670 55.5840586926 35.7618414872 # Na
277 1 1 0.3275 26.8111773202 57.9052129285 31.9032689789 # C
278 1 2 -0.1576 27.3544292388 58.7462218977 32.0163625201 # F
279 1 2 -0.1576 27.2947414974 57.5003895936 32.6678094591 # F
280 1 1 0.3275 25.8671702425 57.9132044939 32.6135656086 # C
281 1 2 -0.1576 25.6864323627 58.4656384297 31.7943724261 # F
282 1 2 -0.1576 24.6020047068 58.1657073034 32.8497337640 # F
283 1 1 0.3275 26.7106311291 57.6651463038 33.8426786452 # C
284 1 2 -0.1576 26.9175793551 56.4149945974 34.0028732055 # F
285 1 2 -0.1576 27.6821641523 57.5348286663 33.9450347111 # F
286 1 1 0.3275 26.5704784171 58.1718944775 34.7476054040 # C
287 1 2 -0.1576 25.9173285275 58.8700065829 33.8255128776 # F
288 1 2 -0.1576 26.8337515954 58.7747202000 35.8513433638 # F
289 1 1 0.3275 26.2017266362 57.1352659820 35.4327703302 # C
290 1 2 -0.1576 24.7681190944 57.1149632042 34.9839085344 # F
291 1 2 -0.1576 26.3597574167 56.7581747704 34.6781514902 # F
292 1 1 0.3275 27.2002107632 56.3303604491 36.0463323606 # C
293 1 2 -0.1576 27.1152740044 55.6904906016 37.1328395249 # F
294 1 2 -0.1576 28.1069373535 57.2063285591 35.8025619351 # F
295 1 1 0.3275 27.0279488662 55.1294696362 35.6358396116 # C
296 1 2 -0.1576 26.1095914379 54.3355409298 36.1653569519 # F
297 1 2 -0.1576 26.6357984857 54.8390884570 34.5839412648 # F
298 1 1 0.3275 27.7578887744 54.5077885999 36.8016134964 # C
299 1 2 -0.1576 26.8291119247 54.5297247827 37.0150509116 # F
300 1 2 -0.1576 28.4291358243 54.0469623590 36.9705889397 # F
301 1 1 0.3275 28.3075335371 55.4209263714 36.9501169474 # C
302 1 2 -0.1576 28.1635759331 55.6631605283 36.0151882321 # F
303 1 2 -0.1576 28.9474407810 56.3046825210 37.5414982562 # F
304 1 1 0.3275 28.1388107056 55.6048439702 37.9780919014 # C
305 1 2 -0.1576 27.2556776272 55.4728562435 37.9028409954 # F
306 1 2 -0.1576 27.7564108847 55.1536102773 38.7999558502 # F
307 1 1 0.3275 28.4443345273 56.3318385777 38.5007913884 # C
308 1 2 -0.1576 27.8472877823 56.6408680368 37.8186350284 # F
309 1 2 -0.1576 27.8969925923 56.9019252948 39.5265773214 # F
310 1 1 0.3275 29.5291267794 56.5490455974 38.9051335159 # C
311 1 2 -0.1576 30.2857353750 56.8294720568 38.0420272510 # F
312 1 2 -0.1576 29.7736606272 57.2688476325 39.3150039632 # F
313 1 1 0.3275 30.1978228998 55.9893457075 39.3195539292 # C
314 1 2 -0.1576 30.5151882657 55.1926753538 39.1276768371 # F
315 1 2 -0.1576 29.7567186689 55.6753336764 40.0031104476 # F
316 1 1 0.3275 30.9812438244 56.7869424075 39.3626704742 # C
317 1 2 -0.1576 32.0990654381 57.1686313330 39.8685820120 # F
318 1 2 -0.1576 31.0629163596 56.0188516247 38.8534198488 # F
319 1 1 0.2465 30.8819179826 57.4253418476 38.7544543184 # C
320 1 2 -0.1336 30.8468798381 58.3978485955 40.0145699319 # F
321 1 2 -0.1336 31.6960702272 57.5799384420 38.2761001660 # F
322 1 1 0.1317 30.7132804360 57.3509834569 37.6224298237 # C
323 1 2 -0.1193 30.1037812581 58.4389069794 37.8727149371 # F
324 1 3 -0.3109 30.4183971685 57.4408502899 36.7572531385 # GFOc
325 1 1 0.4954 29.4750707080 57.5321703482 35.7731893314 # C
326 1 2 -0.1280 28.9211046526 57.2770255440 36.2517595714 # F
327 1 2 -0.1559 28.8746264848 57.3263069931 34.8845786096 # F
328 1 1 0.0465 29.3961455886 58.4555022087 35.5260826358 # C
329 1 2 -0.1122 28.5533835446 59.2678261980 36.4788498928 # F
330 1 1 0.5842 30.6201672097 57.6957611418 35.7277614185 # C
331 1 2 -0.1563 31.7833134670 57.9408246783 36.3647658118 # F
332 1 2 -0.1736 31.0764257571 56.9806835555 36.0876347983 # F
333 1 2 -0.1844 30.1689330726 57.0642591089 36.2041174269 # F
334 1 3 -0.2516 28.7958527196 58.6157816905 34.9064166923 # GFOc
335 1 1 0.4557 29.1252586711 59.3223393101 33.7700582553 # C
336 1 2 -0.1368 30.3930400349 59.7611964471 33.6073034646 # F
337 1 2 -0.1393 28.0031249526 58.9631314351 33.5100137545 # F
338 1 1 0.1062 28.9165170143 60.4222204688 33.5272478029 # C
339 1 2 -0.1457 28.2284726184 60.6469197803 32.6087322218 # F
340 1 2 -0.1482 29.3773963007 60.7813663357 34.6291197843 # F
341 1 4 1.1345 28.9462678249 61.5991624941 33.0088944139 # GGS
342 1 5 -0.6371 27.9788576566 61.9644399032 32.9469257298 # GOs
343 1 5 -0.6371 29.4918865766 62.3752236315 33.0675547857 # GOs
344 1 5 -0.6371 29.7151822724 61.1482907257 32.2750109717 # GOs
345 1 6 1.0000 30.4337883997 60.2874782108 32.1840033750 # Na
346 1 1 0.3275 31.5000732214 56.2612661171 37.1272731373 # C
347 1 2 -0.1576 31.6995517134 55.6379627015 35.9816616199 # F
348 1 2 -0.1576 31.3720733530 55.8679225716 37.9935562055 # F
349 1 1 0.3275 32.4307287789 56.5924384928 37.6922021099 # C
350 1 2 -0.1576 32.4890412611 56.8067648158 38.4843792035 # F
351 1 2 -0.1576 33.1818702460 57.0481986427 36.6898211837 # F
352 1 1 0.3275 33.7839571526 55.7503039951 37.5886880399 # C
353 1 2 -0.1576 34.6876642813 56.4222634116 37.2184109058 # F
354 1 2 -0.1576 35.0103668843 54.7697214811 38.1927476307 # F
355 1 1 0.3275 33.8122997842 55.1034645269 36.4643310257 # C
356 1 2 -0.1576 34.9067031529 55.1742779958 36.4927381729 # F
357 1 2 -0.1576 33.3247165541 54.9820733770 35.4711794648 # F
358 1 1 0.3275 32.9687096314 54.1530907663 36.0789546786 # C
359 1 2 -0.1576 33.3743923781 53.5168692455 36.1067803591 # F
360 1 2 -0.1576 32.6137031539 54.2337591165 35.0259548754 # F
361 1 1 0.3275 32.0281459287 54.4385710499 37.0148160813 # C
362 1 2 -0.1576 31.4285345544 55.0085484554 37.5973467546 # F
363 1 2 -0.1576 31.8531499000 53.1250044801 37.0286595847 # F
364 1 1 0.3275 32.7858796913 55.2165453385 37.4696184160 # C
365 1 2 -0.1576 33.4968864905 54.7715805156 38.0361491532 # F
366 1 2 -0.1576 32.9991026166 55.9507896888 36.6102785192 # F
367 1 1 0.3275 31.8123446972 55.3992814899 37.0042556095 # C
368 1 2 -0.1576 31.8748025125 56.1715644288 36.6098599717 # F
369 1 2 -0.1576 31.9571264745 54.7171621483 36.0561016347 # F
370 1 1 0.3275 30.9185105397 55.4745832163 37.4876280636 # C
371 1 2 -0.1576 29.8148156279 55.4637501893 37.0610569523 # F
372 1 2 -0.1576 30.2807268215 56.2739014332 37.4840902648 # F
373 1 1 0.3275 30.5058652679 54.9006874384 38.2913529817 # C
374 1 2 -0.1576 30.8008372338 54.0533141682 38.1202423368 # F
375 1 2 -0.1576 30.5037324251 55.4614302739 37.2287931551 # F
376 1 1 0.3275 29.6233917075 54.5475685159 39.3877278497 # C
377 1 2 -0.1576 30.3505619723 53.7683484251 39.4228378069 # F
378 1 2 -0.1576 29.7882054434 54.8287677057 40.2908020514 # F
379 1 1 0.3275 28.2778126766 54.1291896622 39.5633368181 # C
380 1 2 -0.1576 28.2965191037 52.9211511904 39.2811787356 # F
381 1 2 -0.1576 27.3917017427 54.5238754099 38.5780774735 # F
382 1 1 0.3275 27.7108701757 53.7937583306 40.3794062130 # C
383 1 2 -0.1576 28.7315139947 52.7943934219 40.7511394640 # F
384 1 2 -0.1576 28.5976567383 54.2516251857 41.3725723497 # F
385 1 1 0.3275 26.7656176760 53.9824282919 40.5230610608 # C
386 1 2 -0.1576 27.3877998305 55.0967185088 40.1446138726 # F
387 1 2 -0.1576 26.0395786833 53.9801516051 41.0019869018 # F
388 1 1 0.2465 27.1123910904 53.8927613107 41.5192335595 # C
389 1 2 -0.1336 27.7729760467 52.7280155897 41.7559212611 # F
390 1 2 -0.1336 27.3522598682 54.8165409842 41.0229376544 # F
391 1 1 0.1317 27.3000712087 55.3213873037 42.3026194766 # C
392 1 2 -0.1193 27.7260176264 55.4395188719 41.4603296428 # F
393 1 3 -0.3109 27.9650371361 55.2735571864 42.8228392044 # GFOc
394 1 1 0.4954 28.4508969707 56.0175807420 43.6207258029 # C
395 1 2 -0.1280 29.0559374142 55.7084380787 44.0590673695 # F
396 1 2 -0.1559 28.6549271644 57.4139000294 43.9929832009 # F
397 1 1 0.0465 27.3132831578 55.8489118080 44.0970644490 # C
398 1 2 -0.1122 27.0728685002 56.1633078559 45.4987909999 # F
399 1 1 0.5842 26.9698844626 54.4949823302 43.5762926767 # C
400 1 2 -0.1563 26.6128102669 53.6872504586 44.4279299020 # F
401 1 2 -0.1736 26.4423079011 54.5388512377 42.7535028058 # F
402 1 2 -0.1844 27.6773852686 53.8395117832 43.3021787172 # F
403 1 3 -0.2516 26.5428480874 56.9971123937 44.2306938695 # GFOc
404 1 1 0.4557 25.6563051535 57.5177232795 44.5157090999 # C
405 1 2 -0.1368 26.5885445153 57.6199824238 45.4176886432 # F
406 1 2 -0.1393 25.0661588225 56.1902502134 44.2933152027 # F
407 1 1 0.1062 25.2472781298 58.1379469046 43.5116906304 # C
408 1 2 -0.1457 25.2948125068 57.3526105009 42.8518090961 # F
409 1 2 -0.1482 24.1529317720 57.7398485616 43.3724253208 # F
410 1 4 1.1345 25.1524118229 58.9582881172 43.2651820035 # GGS
411 1 5 -0.6371 24.1468585561 59.5898019723 43.4289912191 # GOs
412 1 5 -0.6371 25.3589374115 60.2132257360 43.9820730502 # GOs
413 1 5 -0.6371 25.6100970961 58.8040601680 42.6987562161 # GOs
414 1 6 1.0000 25.4910146361 59.8896451454 42.0799234189 # Na
415 1 1 0.3275 26.4497108115 55.6716660286 42.9724833781 # C
416 1 2 -0.1576 26.2192885808 56.5281136695 42.0293084712 # F
417 1 2 -0.1576 25.8510580740 56.2739317160 43.4339606013 # F
418 1 1 0.3275 26.7102141895 55.9140732643 43.8476599746 # C
419 1 2 -0.1576 26.2173311607 56.0031595451 44.6511665684 # F
420 1 2 -0.1576 26.9553294433 55.0189536603 44.2216508312 # F
421 1 1 0.3275 27.2218838904 57.0610542622 43.7296845198 # C
422 1 2 -0.1576 26.8876349730 58.2930463026 43.2568665861 # F
423 1 2 -0.1576 27.4330680402 57.5850532260 44.3593314659 # F
424 1 1 0.3275 28.0199213157 56.7497787009 43.3107418266 # C
425 1 2 -0.1576 28.4704209004 56.5375719409 44.1211837805 # F
426 1 2 -0.1576 28.0248366003 57.6730906578 42.7408268617 # F
427 1 1 0.3275 28.6423597470 56.3643700420 42.4123234884 # C
428 1 2 -0.1576 27.9209690226 56.4792515931 41.8057210157 # F
429 1 2 -0.1576 28.4561174515 55.4547665573 42.4661262438 # F
430 1 1 0.3275 29.8080309770 56.3308222997 42.0528644650 # C
431 1 2 -0.1576 29.8613837146 55.3717215561 41.3728283531 # F
432 1 2 -0.1576 31.2110242326 56.4889211069 42.1149205145 # F
433 1 1 0.3275 29.6722818543 56.8469187696 41.4035301432 # C
434 1 2 -0.1576 30.3169608220 56.3195566027 40.2726956958 # F
435 1 2 -0.1576 30.1090038992 57.8927465804 41.6380470552 # F
436 1 1 0.3275 29.0196679779 56.6896987707 40.6495567297 # C
437 1 2 -0.1576 29.3965445583 57.4260240075 40.1197403988 # F
438 1 2 -0.1576 28.9247882538 55.6768530479 39.9344051023 # F
439 1 1 0.3275 27.9196501600 57.3425282406 41.1226661884 # C
440 1 2 -0.1576 27.2188717517 57.9108147533 40.8915631235 # F
441 1 2 -0.1576 27.6424625167 56.6325400431 40.2890421925 # F
442 1 1 0.3275 29.0183172910 58.1028500028 41.4612917780 # C
443 1 2 -0.1576 28.9835866572 57.2236508650 40.8695709333 # F
444 1 2 -0.1576 29.1860673666 58.1545022534 42.3420296963 # F
445 1 1 0.3275 29.1065071354 58.8718502907 41.2048372005 # C
446 1 2 -0.1576 29.9187972137 59.1108650801 42.0372776698 # F
447 1 2 -0.1576 28.7623815349 60.4578953811 40.9806276981 # F
448 1 1 0.3275 28.5896734331 59.2964566986 40.2555208852 # C
449 1 2 -0.1576 29.4269395100 59.3650644614 39.6009537059 # F
450 1 2 -0.1576 27.6411963191 58.6956376829 40.3463696901 # F
451 1 1 0.3275 27.9501675341 59.6996596866 40.5041643477 # C
452 1 2 -0.1576 26.7915274693 58.6007477532 40.6850127207 # F
453 1 2 -0.1576 28.0906608889 60.3011538342 41.7082056956 # F
454 1 1 0.3275 27.8460338800 59.9980840626 39.6979356211 # C
455 1 2 -0.1576 28.6901078616 60.1825944779 38.9411905429 # F
456 1 2 -0.1576 27.8846499457 59.0897427369 40.0678377535 # F
457 1 1 0.2465 27.2834113067 61.2721166839 40.1859859694 # C
458 1 2 -0.1336 27.9131876369 61.7221233229 41.4697150679 # F
459 1 2 -0.1336 26.4049050022 60.5578891412 40.6480159657 # F
460 1 1 0.1317 26.4474614765 62.1847108348 40.5363142757 # C
461 1 2 -0.1193 27.1072347740 63.0120535495 40.4859399273 # F
462 1 3 -0.3109 25.8072735440 61.5060133284 40.1710667349 # GFOc
463 1 1 0.4954 25.1260639554 60.7289429058 40.1396969230 # C
464 1 2 -0.1280 24.5199624159 60.4509230208 39.3610415546 # F
465 1 2 -0.1559 25.3478169736 59.9855662506 40.2426976466 # F
466 1 1 0.0465 24.5252585217 61.2711641238 40.7749883970 # C
467 1 2 -0.1122 24.5874426370 61.2531536699 41.7828405829 # F
468 1 1 0.5842 23.8104733236 61.9979529930 40.4108458537 # C
469 1 2 -0.1563 23.4278360840 62.1942747286 39.4494371660 # F
470 1 2 -0.1736 23.4966476273 61.1738889589 40.3648941675 # F
471 1 2 -0.1844 23.6722036503 62.7518892835 40.9738981546 # F
472 1 3 -0.2516 23.0639232805 60.8016967108 41.0617425915 # GFOc
473 1 1 0.4557 22.3362935151 60.3603854529 40.6158456881 # C
474 1 2 -0.1368 22.1988166406 59.6842950122 40.1021822362 # F
475 1 2 -0.1393 23.3930724130 60.3996521952 39.5259393646 # F
476 1 1 0.1062 21.3544951401 60.4087340049 41.2356358799 # C
477 1 2 -0.1457 21.4428867274 60.3422511472 42.4679290452 # F