LAMMPS output created by EMC v9.4.4, build Jul 30 2020 09:28:04

        7364  atoms
6447 bonds
10220 angles
13377 dihedrals

           8  atom types
           7  bond types
          12  angle types
          14  dihedral types

             0    41.91517271  xlo xhi
             0    41.91517271  ylo yhi
             0    41.91517271  zlo zhi

Masses

       1   12.01115  # C
       2   18.99840  # F
       3   15.99940  # GFOc
       4   32.06400  # GGS
       5   15.99940  # GOs      
	   6    22.990 	 # Na
       7    1.00797  # WH
       8    15.99940 # WO

Atoms

1 1 1 0.3275 17.7449686753 11.6060274464 37.5549664605 # C
2 1 2 -0.1576 16.7172138018 11.1246146420 37.1302260019 # F
3 1 2 -0.1576 17.1454374699 12.3936087586 37.8900907830 # F
4 1 1 0.3275 18.3472674671 10.8391657832 37.8515413690 # C
5 1 2 -0.1576 17.6028885115 9.8548915670 37.9485195152 # F
6 1 2 -0.1576 18.5430993509 11.6900936627 37.8633918832 # F
7 1 1 0.3275 19.3038908625 10.4059529886 38.2844244798 # C
8 1 2 -0.1576 19.6028623488 9.2070148746 38.8142555736 # F
9 1 2 -0.1576 20.1066850153 10.0588741497 37.3625064413 # F
10 1 1 0.3275 19.8900947628 11.3699747721 38.6520636501 # C
11 1 2 -0.1576 19.6626140564 11.8219983141 39.5120264831 # F
12 1 2 -0.1576 20.9801315574 11.8793937828 38.2635975029 # F
13 1 1 0.3275 19.2574732393 11.9791557307 38.1233911099 # C
14 1 2 -0.1576 19.6397046247 11.5522251659 37.0420113158 # F
15 1 2 -0.1576 18.4510949754 11.4872070132 38.5805660448 # F
16 1 1 0.3275 18.7897971387 12.9565790689 38.0177540004 # C
17 1 2 -0.1576 18.0663517747 12.6054432976 39.0339735090 # F
18 1 2 -0.1576 18.4244684749 12.7830664122 37.1010188987 # F
19 1 1 0.3275 19.4291382475 13.6381337952 38.3486938985 # C
20 1 2 -0.1576 19.7875852689 12.9442748989 39.4467938538 # F
21 1 2 -0.1576 20.0334228859 13.2918236178 37.0749492511 # F
22 1 1 0.3275 19.2060535250 14.3034509576 38.8790283335 # C
23 1 2 -0.1576 19.3948970443 14.3878928308 39.8259012733 # F
24 1 2 -0.1576 17.7944324213 14.1980068296 38.8776419332 # F
25 1 1 0.3275 19.9741950356 14.9389485231 38.4254207516 # C
26 1 2 -0.1576 20.9728289845 14.4623419331 38.1630024840 # F
27 1 2 -0.1576 20.1434751957 15.3179487279 39.2166769498 # F
28 1 1 0.3275 19.1397485350 15.6367757119 37.8553188338 # C
29 1 2 -0.1576 18.0389622448 15.0188040217 37.9160038724 # F
30 1 2 -0.1576 18.8222570461 16.1544492040 36.8659315557 # F
31 1 1 0.3275 19.5386243409 16.4775355452 38.4756556815 # C
32 1 2 -0.1576 18.6266109111 16.6212568594 38.1992500328 # F
33 1 2 -0.1576 20.2888938410 16.8483540394 38.3355457598 # F
34 1 1 0.3275 19.9166140969 16.5406949443 39.3399369327 # C
35 1 2 -0.1576 19.7861649727 16.0859531409 40.3714023334 # F
36 1 2 -0.1576 20.3341201013 17.6928660886 39.0839207954 # F
37 1 1 0.3275 20.6490256335 16.2865636411 39.0361256404 # C
38 1 2 -0.1576 20.3441620679 17.3146283132 38.1671973240 # F
39 1 2 -0.1576 20.6245114817 14.8938046782 39.0921633991 # F
40 1 1 0.3275 21.9522950354 16.3309802899 39.3704239062 # C
41 1 2 -0.1576 21.5458021890 15.5041861526 39.6311796356 # F
42 1 2 -0.1576 22.0570405705 16.7020048468 38.5598817149 # F
43 1 1 0.2465 22.5953336925 16.8803956617 39.7922411283 # C
44 1 2 -0.1336 23.2514615304 16.6048338401 38.8918627807 # F
45 1 2 -0.1336 22.7034645989 17.9726788496 39.2624348310 # F
46 1 1 0.1317 22.6629889786 16.7678328619 40.9568098252 # C
47 1 2 -0.1193 21.8188436567 15.9094543913 40.9522030838 # F
48 1 3 -0.3109 23.9394237492 16.9914420272 41.4506490970 # GFOc
49 1 1 0.4954 25.1718256155 16.9268897774 41.1089429502 # C
50 1 2 -0.1280 24.7111368439 16.0193524369 40.3814615853 # F
51 1 2 -0.1559 26.4255463794 16.8744862495 41.3734371005 # F
52 1 1 0.0465 25.1186732307 17.7310561603 40.3836248976 # C
53 1 2 -0.1122 25.1911362854 18.8512340274 41.1304154027 # F
54 1 1 0.5842 26.2037209869 17.0735314179 40.0413703846 # C
55 1 2 -0.1563 26.3768939028 17.6990454362 39.2671463546 # F
56 1 2 -0.1736 27.1095411259 17.3478363252 40.9310213561 # F
57 1 2 -0.1844 26.6252504701 16.1996246839 40.1713352202 # F
58 1 3 -0.2516 24.6278728540 18.3572877878 39.5352988694 # GFOc
59 1 1 0.4557 25.6739583834 18.5242022914 39.2968585297 # C
60 1 2 -0.1368 25.7092938506 17.6962418351 38.6573321481 # F
61 1 2 -0.1393 25.5599071968 19.6550926939 39.4934536155 # F
62 1 1 0.1062 26.8533729706 18.8252255682 38.9282418565 # C
63 1 2 -0.1457 26.4597465630 19.1602079230 38.1322037410 # F
64 1 2 -0.1482 27.7311376903 18.6882634756 38.9641880707 # F
65 1 4 1.1345 26.8785915231 18.3321037658 39.8340798711 # GGS
66 1 5 -0.6371 27.3569504445 17.4672854581 39.8676640482 # GOs
67 1 5 -0.6371 26.0003277059 18.2626835979 40.2589073398 # GOs
68 1 5 -0.6371 27.4825454351 18.6777941357 40.1890520318 # GOs
69 1 6 1.0000 27.2778910173 19.7238492041 40.2076273687 # Na
70 1 1 0.3275 22.6948725235 17.2514743844 41.7897580794 # C
71 1 2 -0.1576 22.4315652020 16.4803096708 42.2612459370 # F
72 1 2 -0.1576 23.4932798731 17.5195056387 41.8856789557 # F
73 1 1 0.3275 21.8137649732 17.7713094113 41.5094138250 # C
74 1 2 -0.1576 21.6028898313 16.7171333296 41.5206133890 # F
75 1 2 -0.1576 20.7033076020 18.1048786079 41.0665886639 # F
76 1 1 0.3275 21.6496629590 18.6219034974 41.6811271198 # C
77 1 2 -0.1576 22.0667979950 19.4613873191 40.9906282424 # F
78 1 2 -0.1576 20.6332289759 18.4236168200 41.6049848334 # F
79 1 1 0.3275 22.0046920640 18.5579225374 42.4978771662 # C
80 1 2 -0.1576 22.1759968375 19.2527686432 43.9947433748 # F
81 1 2 -0.1576 21.6705524945 17.6472014049 42.8184718332 # F
82 1 1 0.3275 22.7613306874 18.4892868215 42.9970380199 # C
83 1 2 -0.1576 22.7746475656 18.2462773297 44.0404778946 # F
84 1 2 -0.1576 23.4667499976 17.6012470653 42.5231252274 # F
85 1 1 0.3275 23.2386257557 19.7591308039 42.4059094869 # C
86 1 2 -0.1576 23.4531983594 20.0522647377 40.9058711200 # F
87 1 2 -0.1576 23.9655493663 20.2120954158 43.4474721913 # F
88 1 1 0.3275 22.4004716042 20.5189230354 41.9151764964 # C
89 1 2 -0.1576 22.6496560110 19.9496886664 40.8028147036 # F
90 1 2 -0.1576 23.0125003906 21.3513341645 41.3968875700 # F
91 1 1 0.3275 21.4758659152 20.9696638951 42.4586597788 # C
92 1 2 -0.1576 21.2222620569 21.2791546112 43.4593169793 # F
93 1 2 -0.1576 22.3473987350 21.6263535754 42.1817159489 # F
94 1 1 0.3275 20.6123582732 20.8858947227 42.3229072758 # C
95 1 2 -0.1576 20.5327473145 20.9051993595 43.7834916637 # F
96 1 2 -0.1576 19.9962650421 19.8436419072 42.3858344158 # F
97 1 1 0.3275 20.2342029735 21.5624378998 41.8113280723 # C
98 1 2 -0.1576 20.5473862259 22.5303012516 42.1016038958 # F
99 1 2 -0.1576 19.3517197521 21.0599595131 41.8176539479 # F
100 1 1 0.3275 20.6200287738 21.8600453192 40.9544424148 # C
101 1 2 -0.1576 20.0100721656 21.2972297390 40.3698088308 # F
102 1 2 -0.1576 21.6782891848 22.5056134104 41.1137283636 # F
103 1 1 0.3275 20.2127580911 22.4771814009 40.8596127269 # C
104 1 2 -0.1576 20.2348397372 22.3217378677 39.7607195108 # F
105 1 2 -0.1576 20.5605156158 23.3738748744 40.9664414003 # F
106 1 1 0.3275 19.1945760106 22.5930520255 41.2251786721 # C
107 1 2 -0.1576 19.8086481655 22.3741226913 40.3109682859 # F
108 1 2 -0.1576 18.7324681171 23.3251381953 42.0771231003 # F
109 1 1 0.3275 18.5092163986 21.9016953612 41.8693343445 # C
110 1 2 -0.1576 18.0313161628 22.4970520054 42.3125137736 # F
111 1 2 -0.1576 18.0079775654 21.5470638187 41.1922969547 # F
112 1 1 0.2465 18.0828807177 20.7725492461 42.2234249810 # C
113 1 2 -0.1336 17.5770910351 20.4437339397 41.0917303563 # F
114 1 2 -0.1336 17.4416943934 20.6570999870 42.4924654364 # F
115 1 1 0.1317 18.6495094016 20.1237224932 43.5388038721 # C
116 1 2 -0.1193 19.4004726231 19.2294840475 42.9532283857 # F
117 1 3 -0.3109 19.6264599579 20.4121762310 43.7973706587 # GFOc
118 1 1 0.4954 20.2354575717 19.6285218400 44.0838720328 # C
119 1 2 -0.1280 21.0507161465 19.4308943678 44.8267231694 # F
120 1 2 -0.1559 20.1301425894 18.4133223431 44.1334047562 # F
121 1 1 0.0465 20.8641733355 19.5248822653 42.9515200335 # C
122 1 2 -0.1122 21.0789528197 19.1808566021 43.7138945493 # F
123 1 1 0.5842 21.1538065373 20.2784686385 42.4059626029 # C
124 1 2 -0.1563 20.3608196820 21.0107728232 42.9474465414 # F
125 1 2 -0.1736 21.6901886296 20.4716383827 43.2779697922 # F
126 1 2 -0.1844 21.7197442147 20.5884075256 41.1089997029 # F
127 1 3 -0.2516 20.4466179621 19.0346740760 42.0999874896 # GFOc
128 1 1 0.4557 20.3114571404 17.8873535706 42.0551077693 # C
129 1 2 -0.1368 19.7016545609 16.7139642285 41.8998392590 # F
130 1 2 -0.1393 20.9431531691 17.2375821023 41.5917246081 # F
131 1 1 0.1062 19.5195224698 18.1389033547 41.8582791425 # C
132 1 2 -0.1457 19.3561044135 19.1432331156 42.2478722441 # F
133 1 2 -0.1482 19.8950759987 18.7932570931 41.0476518151 # F
134 1 4 1.1345 18.6801346516 18.0531369013 41.5541262137 # GGS
135 1 5 -0.6371 18.3994386082 17.1652376268 41.7271496940 # GOs
136 1 5 -0.6371 18.8474146250 18.3160451397 42.2966741296 # GOs
137 1 5 -0.6371 18.3953670678 18.5855971358 40.8552556381 # GOs
138 1 6 1.0000 18.0277970493 19.1053138888 40.2603043440 # Na
139 1 1 0.3275 17.9757833144 20.0738004095 44.2719195449 # C
140 1 2 -0.1576 17.7960615075 19.2447302422 44.9890730864 # F
141 1 2 -0.1576 16.8508592142 20.3081342534 43.6127302520 # F
142 1 1 0.3275 18.3393371618 20.9501621523 44.9954908444 # C
143 1 2 -0.1576 19.2045326359 21.3098420204 44.3922169435 # F
144 1 2 -0.1576 18.3136503823 20.1320719855 45.4987225569 # F
145 1 1 0.3275 17.6498419246 21.1613809181 45.3947373317 # C
146 1 2 -0.1576 16.7751711301 21.4995324613 44.8814192530 # F
147 1 2 -0.1576 17.1438540970 20.1999242748 45.4725494955 # F
148 1 1 0.3275 18.0853420337 21.6743338205 46.1693048739 # C
149 1 2 -0.1576 19.0564455833 22.2004497872 45.2937119047 # F
150 1 2 -0.1576 18.2112095568 22.8848731568 47.2639492001 # F
151 1 1 0.3275 17.7260005380 20.2998157306 46.9352681740 # C
152 1 2 -0.1576 16.9785731391 19.4791433284 46.4153417620 # F
153 1 2 -0.1576 17.2721313727 20.8276106028 48.2386965597 # F
154 1 1 0.3275 18.9136290230 19.5869579078 47.1694600961 # C
155 1 2 -0.1576 17.9202238643 18.5923630151 47.0326998467 # F
156 1 2 -0.1576 19.5117956860 19.5331990450 46.6730616258 # F
157 1 1 0.3275 19.3183413593 19.9498699240 48.4577417722 # C
158 1 2 -0.1576 20.7613988550 19.1786217234 48.4278851416 # F
159 1 2 -0.1576 18.4356226941 19.2255800643 49.3534581009 # F
160 1 1 0.3275 19.3288487255 20.7363202500 48.9907409019 # C
161 1 2 -0.1576 20.3284675204 21.3262327222 49.5390588927 # F
162 1 2 -0.1576 18.4940239286 21.3106771965 49.0280644021 # F
163 1 1 0.3275 19.1096021374 20.6464733957 47.9363876758 # C
164 1 2 -0.1576 18.7287760104 21.6982400739 47.7894642452 # F
165 1 2 -0.1576 18.4790152532 19.2746909107 47.8418539114 # F
166 1 1 0.3275 19.1739238131 20.5324245598 46.8301159162 # C
167 1 2 -0.1576 18.0828076080 19.6535269752 46.8222359079 # F
168 1 2 -0.1576 19.2787275986 20.4820982717 45.7958159587 # F
169 1 1 0.3275 19.9802837947 20.9798440426 46.7157113373 # C
170 1 2 -0.1576 20.6048232529 20.7761893985 45.9023007275 # F
171 1 2 -0.1576 20.2475047009 20.5408741065 47.1682027466 # F
172 1 1 0.3275 20.3562089090 21.6745091446 46.7901054674 # C
173 1 2 -0.1576 21.0365147194 21.6574940443 47.4529615326 # F
174 1 2 -0.1576 19.4940533589 22.4308196974 47.3195903891 # F
175 1 1 0.3275 20.7422105026 22.4907364101 46.1244139831 # C
176 1 2 -0.1576 20.9840479544 23.2960821206 46.4596937331 # F
177 1 2 -0.1576 21.3535351954 22.2605791516 45.7331644824 # F
178 1 1 0.3275 20.1274755863 23.1001420386 45.2218912403 # C
179 1 2 -0.1576 19.4617753826 23.5006021138 46.2392109281 # F
180 1 2 -0.1576 19.3496218953 22.8181302269 44.7195654647 # F
181 1 1 0.2465 20.3993216059 23.2375959174 44.4627834365 # C
182 1 2 -0.1336 20.8499468631 22.5805489367 44.4770607397 # F
183 1 2 -0.1336 20.9879687536 23.8157319722 44.4235119313 # F
184 1 1 0.1317 19.6980603301 23.4169099009 43.8285721555 # C
185 1 2 -0.1193 19.6136681492 24.2918300174 43.5796987750 # F
186 1 3 -0.3109 18.9103947551 23.1637917033 43.2389118005 # GFOc
187 1 1 0.4954 19.5207379010 23.3984309060 42.5228556918 # C
188 1 2 -0.1280 19.2143664313 23.9682627080 41.5610818533 # F
189 1 2 -0.1559 19.5640668344 22.5045370738 42.5242557549 # F
190 1 1 0.0465 20.5585283295 23.3086547591 42.2454130563 # C
191 1 2 -0.1122 20.8909027246 22.7540908918 43.0975005274 # F
192 1 1 0.5842 21.5254083890 23.8756926111 42.4630646443 # C
193 1 2 -0.1563 22.4806275848 22.9217924724 41.9179825301 # F
194 1 2 -0.1736 21.6650903157 23.8976479011 43.6245851297 # F
195 1 2 -0.1844 21.8806932182 24.9890859943 42.7766613265 # F
196 1 3 -0.2516 21.2018150743 23.0681593823 40.7493102895 # GFOc
197 1 1 0.4557 21.9905151997 23.6893677507 40.5984646235 # C
198 1 2 -0.1368 22.1449134467 23.9684479116 39.2432853261 # F
199 1 2 -0.1393 22.1742608938 25.0206178841 40.2790909386 # F
200 1 1 0.1062 22.5756467713 24.0808632411 41.4467124834 # C
201 1 2 -0.1457 22.4619560596 24.0376428243 42.7785476070 # F
202 1 2 -0.1482 21.2899964973 24.6002076425 41.4828777885 # F
203 1 4 1.1345 23.3502081367 24.5964371812 41.2016782756 # GGS
204 1 5 -0.6371 23.3770009663 25.5731219082 41.2467396680 # GOs
205 1 5 -0.6371 23.2826171624 23.6126281305 41.3909570805 # GOs
206 1 5 -0.6371 24.0959330727 24.4289566372 41.0891713278 # GOs
207 1 6 1.0000 24.7452225669 23.5972294942 41.2181655043 # Na
208 1 1 0.3275 19.2689882273 23.7123249728 44.7609364737 # C
209 1 2 -0.1576 20.0408239391 24.2149389749 45.0372446276 # F
210 1 2 -0.1576 18.4633028821 23.3628719122 45.1414972128 # F
211 1 1 0.3275 18.7668881581 24.9151819424 45.0129197913 # C
212 1 2 -0.1576 17.9230598418 24.8545315387 46.1971238227 # F
213 1 2 -0.1576 18.1881030755 25.6714909790 44.5212102728 # F
214 1 1 0.3275 19.5380971902 25.0188705574 44.0630292078 # C
215 1 2 -0.1576 20.4019563857 25.0128997280 43.7685456499 # F
216 1 2 -0.1576 19.7958010484 25.8993058878 44.1206279516 # F
217 1 1 0.3275 18.4124031786 25.0004631112 43.5254335577 # C
218 1 2 -0.1576 18.9330380213 25.7572852683 43.1449655008 # F
219 1 2 -0.1576 17.5803042148 23.9084055942 43.6251560789 # F
220 1 1 0.3275 17.9186923592 25.1316703480 42.6017510522 # C
221 1 2 -0.1576 17.9734154733 25.9843854390 41.6524597020 # F
222 1 2 -0.1576 18.4198587631 24.9447722433 41.7634956231 # F
223 1 1 0.3275 17.1862380399 24.8755094039 43.1648859013 # C
224 1 2 -0.1576 16.9826414988 24.5885133084 44.2072823245 # F
225 1 2 -0.1576 16.6970402401 25.5818109907 42.0930936164 # F
226 1 1 0.3275 16.3397222494 24.2813675334 42.8698247825 # C
227 1 2 -0.1576 15.9033006185 24.3579775030 43.8229271896 # F
228 1 2 -0.1576 15.5120445454 23.9570222893 42.1405275265 # F
229 1 1 0.3275 17.2444592659 23.5938869996 42.6461875547 # C
230 1 2 -0.1576 16.9416117985 22.9899157298 43.6888963942 # F
231 1 2 -0.1576 17.0170927713 22.2191382012 42.1523819235 # F
232 1 1 0.3275 17.9708875081 24.1583417501 41.7252347503 # C
233 1 2 -0.1576 17.4444049397 25.0604200966 41.9459537821 # F
234 1 2 -0.1576 18.5138828289 24.4738046739 41.0794433053 # F
235 1 1 0.3275 17.9431628509 23.7416480190 40.4645341648 # C
236 1 2 -0.1576 17.9979690442 22.4066485432 40.7109259316 # F
237 1 2 -0.1576 19.2063554831 24.3648037720 40.1597811649 # F
238 1 1 0.3275 16.7553737308 24.2364916735 39.3648348605 # C
239 1 2 -0.1576 16.2390703197 25.4775686569 39.1690740691 # F
240 1 2 -0.1576 16.0565409491 23.8666048239 39.8428409982 # F
241 1 1 0.3275 16.8953942353 23.4655048323 38.7713357223 # C
242 1 2 -0.1576 16.4032854580 22.7358409970 38.6159705889 # F
243 1 2 -0.1576 17.7570666807 23.7802975030 38.4101468117 # F
244 1 1 0.3275 16.6108745125 23.9014722357 37.7619424698 # C
245 1 2 -0.1576 15.8923736760 24.5368210843 37.9556303157 # F
246 1 2 -0.1576 17.0550287721 23.9938990125 36.6851628566 # F
247 1 1 0.3275 16.4810898187 22.6555301965 37.9721207897 # C
248 1 2 -0.1576 16.9034117889 21.7231858579 38.0885221616 # F
249 1 2 -0.1576 15.4054208812 22.6613612627 39.0246774164 # F
250 1 1 0.2465 16.0614501101 22.0124882147 37.3103319614 # C
251 1 2 -0.1336 15.5134279116 21.5879841576 38.1587234528 # F
252 1 2 -0.1336 16.0955648421 22.2604109481 36.3194854908 # F
253 1 1 0.1317 17.0547888419 21.4752040538 37.1081741009 # C
254 1 2 -0.1193 16.8353049343 20.1572681531 37.2785074016 # F
255 1 3 -0.3109 17.3857884268 20.5365789223 36.6711463130 # GFOc
256 1 1 0.4954 17.8226974400 19.6059133213 36.0322935988 # C
257 1 2 -0.1280 17.1948249055 20.1745900336 35.3235214399 # F
258 1 2 -0.1559 18.7497134145 19.7569587528 35.5337207387 # F
259 1 1 0.0465 17.2433833375 18.6538274158 35.3255791962 # C
260 1 2 -0.1122 16.2988570796 18.3689673784 34.4496420223 # F
261 1 1 0.5842 16.9315319926 18.1451859574 36.0237598695 # C
262 1 2 -0.1563 16.3844237517 18.6408044804 37.1561355251 # F
263 1 2 -0.1736 17.8270955406 17.9025893312 36.3721046687 # F
264 1 2 -0.1844 16.3622838978 17.3487881921 36.2391414444 # F
265 1 3 -0.2516 17.9559722598 17.9801239087 35.2861428287 # GFOc
266 1 1 0.4557 19.0761523451 18.4374724379 36.1264471179 # C
267 1 2 -0.1368 18.8643749177 18.9977555232 36.4733544313 # F
268 1 2 -0.1393 19.1541788647 17.4018105982 36.9130826612 # F
269 1 1 0.1062 19.8671913875 18.8041837593 35.9215173845 # C
270 1 2 -0.1457 20.3952799752 18.8137398691 36.5947187938 # F
271 1 2 -0.1482 20.1769129974 19.6811943087 35.6503556025 # F
272 1 4 1.1345 20.5029808481 18.6862058728 34.9424671270 # GGS
273 1 5 -0.6371 21.5921338507 18.5069735602 35.5566223286 # GOs
274 1 5 -0.6371 20.5503157293 20.0487415954 34.6016119152 # GOs
275 1 5 -0.6371 19.6849052008 18.1605223790 34.1718968059 # GOs
276 1 6 1.0000 18.7269786590 17.5092375142 33.8867519190 # Na
277 1 1 0.3275 17.9844692995 22.5904242154 37.4415128910 # C
278 1 2 -0.1576 18.3628550907 23.1628151379 36.9526890772 # F
279 1 2 -0.1576 17.2770527195 23.3492669721 37.4502205103 # F
280 1 1 0.3275 18.1961433088 22.5842612618 38.5293911791 # C
281 1 2 -0.1576 19.1022077945 21.9551609245 38.1136440160 # F
282 1 2 -0.1576 17.7237720836 22.1770996931 39.1148476095 # F
283 1 1 0.3275 17.8070434973 23.1203829598 39.2914802778 # C
284 1 2 -0.1576 16.5325940173 22.9999779590 39.7430927154 # F
285 1 2 -0.1576 19.0062924903 23.3760615405 39.5959409729 # F
286 1 1 0.3275 17.5073989695 24.2251621545 39.8809243932 # C
287 1 2 -0.1576 16.9718227052 23.4127186928 40.6551619074 # F
288 1 2 -0.1576 17.2212880426 24.2929679786 41.0208418559 # F
289 1 1 0.3275 17.1828568792 25.2004873192 39.7173671154 # C
290 1 2 -0.1576 17.3562375266 25.7554732080 40.2624661065 # F
291 1 2 -0.1576 16.5664534993 25.1776613386 38.3875535936 # F
292 1 1 0.3275 18.1735923467 25.9965050445 39.6155594805 # C
293 1 2 -0.1576 18.6800609358 25.6208951009 40.1970309260 # F
294 1 2 -0.1576 18.2961797973 27.0836760077 40.3545842781 # F
295 1 1 0.3275 18.3101537441 26.3289697799 38.1572009996 # C
296 1 2 -0.1576 16.9622412385 26.3131613008 37.9965647486 # F
297 1 2 -0.1576 19.3451183316 25.6730940538 37.7845418591 # F
298 1 1 0.3275 18.1333248529 27.2020481656 38.3091701523 # C
299 1 2 -0.1576 18.3343620644 27.7712496959 39.6120458579 # F
300 1 2 -0.1576 16.6063421822 27.2432601545 37.9655785192 # F
301 1 1 0.3275 18.3918036506 28.2854501520 37.9624827335 # C
302 1 2 -0.1576 17.9086987285 28.6426487571 37.3134815079 # F
303 1 2 -0.1576 18.2363724442 29.2852608641 38.5825056711 # F
304 1 1 0.3275 19.2420598076 28.6645848909 37.7608239725 # C
305 1 2 -0.1576 19.0933342285 29.1344772099 38.5241690786 # F
306 1 2 -0.1576 20.1828946286 28.5595897882 37.9135900674 # F
307 1 1 0.3275 19.5270288945 29.1352880979 36.6041042620 # C
308 1 2 -0.1576 19.5963946524 30.1798487588 36.2615226643 # F
309 1 2 -0.1576 18.7441921103 28.6898800320 36.0367141106 # F
310 1 1 0.3275 20.2445290929 28.3266194547 36.5442796290 # C
311 1 2 -0.1576 21.0829225139 27.6039597943 35.9314172287 # F
312 1 2 -0.1576 19.5617526989 28.1206103838 37.1746517860 # F
313 1 1 0.3275 20.0626939308 27.7900422216 35.3817856311 # C
314 1 2 -0.1576 19.0703492340 28.3983114556 35.4092678964 # F
315 1 2 -0.1576 20.1904115181 26.8229620308 36.1675734962 # F
316 1 1 0.3275 20.9583925259 28.0039642910 34.3817434723 # C
317 1 2 -0.1576 20.5232532516 27.1131897986 33.2770847902 # F
318 1 2 -0.1576 20.6877947997 28.7503455766 33.7594439720 # F
319 1 1 0.2465 22.3316884653 27.9117729363 34.7549391474 # C
320 1 2 -0.1336 23.6034049639 28.5081810958 34.6513690393 # F
321 1 2 -0.1336 22.5094422638 28.3758478154 35.6350399914 # F
322 1 1 0.1317 22.6006830625 27.6289138419 33.6704886916 # C
323 1 2 -0.1193 23.1607901306 26.9898747525 34.3460738041 # F
324 1 3 -0.3109 22.0740709582 27.1983143168 33.1517510933 # GFOc
325 1 1 0.4954 22.0361094118 26.4759231642 33.1390922625 # C
326 1 2 -0.1280 21.7371500491 26.3505344222 34.0529116548 # F
327 1 2 -0.1559 22.9656845918 26.2604721570 32.5714503045 # F
328 1 1 0.0465 21.5112368518 25.8941360871 32.3294110617 # C
329 1 2 -0.1122 22.2814705923 24.9722342203 31.9754757770 # F
330 1 1 0.5842 20.9763304785 25.7701461510 31.3710209440 # C
331 1 2 -0.1563 20.9179811093 26.8233888897 31.3004587736 # F
332 1 2 -0.1736 20.6757510742 24.9357050907 31.7197159167 # F
333 1 2 -0.1844 21.4726894299 25.3355763564 30.5434764402 # F
334 1 3 -0.2516 20.5571110317 25.6270485768 32.9354007888 # GFOc
335 1 1 0.4557 19.2841523572 26.5182171300 32.8613092699 # C
336 1 2 -0.1368 18.0040507089 26.3926328361 32.8997677549 # F
337 1 2 -0.1393 19.2790114390 27.1311706310 32.1168202809 # F
338 1 1 0.1062 19.4445397911 27.1572621015 33.8761688751 # C
339 1 2 -0.1457 20.0377299985 26.3925729698 34.1596894993 # F
340 1 2 -0.1482 20.1319634755 28.0816199662 34.2602174752 # F
341 1 4 1.1345 18.3594494541 28.1619289874 33.9291055046 # GGS
342 1 5 -0.6371 17.7598061923 28.6988047218 34.7384384247 # GOs
343 1 5 -0.6371 18.6632751298 29.2754189249 34.1540617313 # GOs
344 1 5 -0.6371 17.8167227700 28.0407947863 32.8323652980 # GOs
345 1 6 1.0000 17.0020063480 27.5780380089 32.4175065856 # Na
346 1 1 0.3275 22.8290756236 28.3368616150 32.5001244310 # C
347 1 2 -0.1576 22.2197976550 29.2911364559 32.3963151040 # F
348 1 2 -0.1576 23.1695787882 27.9282499690 31.2167499700 # F
349 1 1 0.3275 23.6604832743 28.7002155032 32.5106193520 # C
350 1 2 -0.1576 24.9219014561 29.5004644854 32.2289660314 # F
351 1 2 -0.1576 23.8758382296 28.3508862182 33.6924159481 # F
352 1 1 0.3275 24.3154632064 28.0856387474 31.7979612677 # C
353 1 2 -0.1576 24.3732222401 28.8394325340 31.3841970331 # F
354 1 2 -0.1576 23.9217960013 27.1122067275 31.9900926615 # F
355 1 1 0.3275 24.9059807002 27.2995794477 31.0818422684 # C
356 1 2 -0.1576 25.3001771769 28.2058937261 31.6187354170 # F
357 1 2 -0.1576 25.2767640901 26.3106773298 31.6923257961 # F
358 1 1 0.3275 25.3443299380 26.9422813035 29.9734365675 # C
359 1 2 -0.1576 25.6525175970 27.9680536389 29.6269335199 # F
360 1 2 -0.1576 26.4072782256 26.5660519449 29.6107986284 # F
361 1 1 0.3275 24.9684739901 25.5182607220 30.1586402362 # C
362 1 2 -0.1576 24.5568063763 24.9941404878 29.3091870456 # F
363 1 2 -0.1576 26.1107650561 24.8914465036 30.0588887633 # F
364 1 1 0.3275 23.9881598329 25.8043993149 30.5071064201 # C
365 1 2 -0.1576 23.5026788017 26.6185646287 29.5132629125 # F
366 1 2 -0.1576 24.0457483725 26.4954335150 31.0028655613 # F
367 1 1 0.3275 23.4271068115 25.2428293023 30.8286495752 # C
368 1 2 -0.1576 23.1164887579 25.2268105706 31.8112958956 # F
369 1 2 -0.1576 22.4582389581 25.3763720914 30.1030020065 # F
370 1 1 0.3275 24.2097329059 24.2180609699 30.9177361979 # C
371 1 2 -0.1576 25.2187756120 24.1693753889 30.1058921960 # F
372 1 2 -0.1576 24.4958189578 24.5177611263 32.1362029886 # F
373 1 1 0.3275 24.0297459353 23.4504765670 31.0781861092 # C
374 1 2 -0.1576 23.8678702285 22.3732769709 31.0757557945 # F
375 1 2 -0.1576 25.2127138555 23.4181891796 31.6654600047 # F
376 1 1 0.3275 23.8170052098 24.3002767787 31.5679408838 # C
377 1 2 -0.1576 23.4349854797 24.2007669502 32.4374279401 # F
378 1 2 -0.1576 23.2124192182 24.5337212647 31.0881417491 # F
379 1 1 0.3275 23.7263635743 25.5612982300 32.0471239053 # C
380 1 2 -0.1576 23.8099352659 25.5378480698 32.8974839388 # F
381 1 2 -0.1576 24.5501731913 25.6992121364 31.4527160342 # F
382 1 1 0.3275 23.2142999565 27.1570259441 31.7804587558 # C
383 1 2 -0.1576 24.0789803907 27.2195129715 30.4979861629 # F
384 1 2 -0.1576 22.4455593352 27.0380360385 30.8565301448 # F
385 1 1 0.3275 22.3348487575 27.5303762521 32.1293322555 # C
386 1 2 -0.1576 22.0962688285 28.3160468420 31.2560933601 # F
387 1 2 -0.1576 21.7676343661 28.4854954406 31.9997200428 # F
388 1 1 0.2465 21.4729842141 27.0717459725 32.2728750797 # C
389 1 2 -0.1336 22.4199606683 26.2401856110 31.9439762339 # F
390 1 2 -0.1336 20.9876450206 27.9498529771 32.8149467800 # F
391 1 1 0.1317 20.8795214454 28.4032462555 32.0865110465 # C
392 1 2 -0.1193 21.1838575981 29.2723342273 31.1799697984 # F
393 1 3 -0.3109 20.1784055992 28.5518319962 32.6422721256 # GFOc
394 1 1 0.4954 19.1498016928 28.0962285221 32.0507154122 # C
395 1 2 -0.1280 19.0934136529 29.0908867938 31.3160434230 # F
396 1 2 -0.1559 18.6978124322 27.8976404546 33.0882202683 # F
397 1 1 0.0465 19.0356229133 27.6175647720 31.4208093326 # C
398 1 2 -0.1122 18.6922568471 26.3783140031 31.5141285501 # F
399 1 1 0.5842 18.3094071424 28.6150211777 31.1431158353 # C
400 1 2 -0.1563 18.4149321619 29.2337174064 32.0063491724 # F
401 1 2 -0.1736 18.4592697908 28.9817685743 30.3675943932 # F
402 1 2 -0.1844 17.7714136008 29.1695539071 30.9646987638 # F
403 1 3 -0.2516 20.0605845213 27.4126238527 30.7045221271 # GFOc
404 1 1 0.4557 19.7742008591 27.8782467700 29.6651175833 # C
405 1 2 -0.1368 19.2585637390 27.5301037842 28.7062230582 # F
406 1 2 -0.1393 20.0906316882 28.6827094329 29.4627115649 # F
407 1 1 0.1062 20.4468657259 27.7613673638 29.4804485532 # C
408 1 2 -0.1457 20.5784595667 26.6544146892 30.0967146896 # F
409 1 2 -0.1482 20.4970834338 28.2073208792 28.6979488146 # F
410 1 4 1.1345 21.3551863735 28.3461704942 29.5556927631 # GGS
411 1 5 -0.6371 21.7677656987 28.1752696882 30.6035100308 # GOs
412 1 5 -0.6371 22.4165709097 28.1121863199 29.2495854026 # GOs
413 1 5 -0.6371 21.4304408999 29.2552933910 29.6049420277 # GOs
414 1 6 1.0000 22.5844186600 29.7006815616 29.0915390094 # Na
415 1 1 0.3275 20.7095805350 27.5536033355 31.6299151794 # C
416 1 2 -0.1576 20.3148145618 28.5884927712 31.5312704923 # F
417 1 2 -0.1576 21.5730683037 27.2866571376 31.0650070802 # F
418 1 1 0.3275 19.8164207387 26.4586148724 31.0950775328 # C
419 1 2 -0.1576 19.7716877027 25.4933353257 30.9745903395 # F
420 1 2 -0.1576 19.5994642512 25.9450669575 31.9471779386 # F
421 1 1 0.3275 19.5478697851 26.6157071179 30.2401877056 # C
422 1 2 -0.1576 19.8871072976 27.4253766567 29.9400157321 # F
423 1 2 -0.1576 19.2721463223 25.3133157064 29.9601881958 # F
424 1 1 0.3275 18.6346003045 26.9059994146 29.5032721122 # C
425 1 2 -0.1576 18.5676507415 26.5010394287 28.5307137947 # F
426 1 2 -0.1576 19.2137364422 26.2063477446 29.6204066174 # F
427 1 1 0.3275 18.0589516140 27.4558164192 29.7751458345 # C
428 1 2 -0.1576 17.5626532345 27.1757442208 30.2939614283 # F
429 1 2 -0.1576 18.0552212196 28.0659341436 29.0202703071 # F
430 1 1 0.3275 18.8424502251 27.8578135047 30.1924998340 # C
431 1 2 -0.1576 18.7123281563 26.8354426739 30.6226298507 # F
432 1 2 -0.1576 19.5610228021 28.1451867563 31.0592078676 # F
433 1 1 0.3275 18.4265442122 29.1022323804 29.5077070778 # C
434 1 2 -0.1576 19.3010788732 29.1252846624 30.4749195296 # F
435 1 2 -0.1576 18.6370831778 29.8444280222 28.8999910260 # F
436 1 1 0.3275 17.8680671754 28.9041131919 28.7745905732 # C
437 1 2 -0.1576 18.0991965724 28.5206101807 28.1138723318 # F
438 1 2 -0.1576 17.2764120754 29.9926475818 28.6914883833 # F
439 1 1 0.3275 17.2230720263 29.0000782799 29.5710391505 # C
440 1 2 -0.1576 17.4834416943 29.6482790807 29.5396112823 # F
441 1 2 -0.1576 16.0585902669 28.9977159721 29.7857793721 # F
442 1 1 0.3275 17.0753615263 28.7127001714 30.9428035865 # C
443 1 2 -0.1576 17.3567028102 27.8322890487 31.2330362030 # F
444 1 2 -0.1576 17.2607054792 29.6811744320 31.7540504776 # F
445 1 1 0.3275 15.9512947809 28.3678866313 31.6133702206 # C
446 1 2 -0.1576 15.8483281045 28.4624962825 32.5547601385 # F
447 1 2 -0.1576 14.8042579685 29.1083325141 31.5639629832 # F
448 1 1 0.3275 15.7487958524 27.2082671195 31.0907382508 # C
449 1 2 -0.1576 16.0563157160 26.6869057214 32.0280581272 # F
450 1 2 -0.1576 15.0186588026 26.3374318619 30.8392345305 # F
451 1 1 0.3275 16.3812152604 26.9461885149 30.4874623666 # C
452 1 2 -0.1576 16.5769565050 26.7217963942 31.3493048992 # F
453 1 2 -0.1576 17.3539888247 26.1516185088 29.9272416769 # F
454 1 1 0.3275 16.3190850900 26.6772509137 29.6220168746 # C
455 1 2 -0.1576 16.6865393967 25.5749303025 30.1824351028 # F
456 1 2 -0.1576 17.1249320092 26.8411780859 29.2626940713 # F
457 1 1 0.2465 15.7129343484 26.7408763262 28.8401735646 # C
458 1 2 -0.1336 16.2548131494 27.2798863763 28.3466932940 # F
459 1 2 -0.1336 16.3993580592 26.1220926703 28.2852546949 # F
460 1 1 0.1317 14.9761056980 26.3951618949 28.6993353034 # C
461 1 2 -0.1193 14.5188222784 25.9960455872 27.8531202851 # F
462 1 3 -0.3109 14.0449201739 27.3207495120 28.9242838354 # GFOc
463 1 1 0.4954 13.9764279326 28.1835014039 28.0105374544 # C
464 1 2 -0.1280 12.9634736075 28.0160836225 27.8233919789 # F
465 1 2 -0.1559 14.9159454780 27.8178841892 28.3649887937 # F
466 1 1 0.0465 14.4629975228 29.4111148006 28.0070288970 # C
467 1 2 -0.1122 13.6296038361 29.7810326389 27.6896095323 # F
468 1 1 0.5842 15.0717937100 29.6638467432 29.2205669667 # C
469 1 2 -0.1563 15.6265288957 30.2976412547 29.1507219796 # F
470 1 2 -0.1736 15.1704299044 29.0797722201 29.4900062756 # F
471 1 2 -0.1844 14.1700537351 29.8832416198 29.7933001221 # F
472 1 3 -0.2516 15.6058660653 28.6489783833 27.5530180901 # GFOc
473 1 1 0.4557 16.0887581737 28.2291848852 26.7495322656 # C
474 1 2 -0.1368 15.1303534085 27.1248610864 26.9497156403 # F
475 1 2 -0.1393 16.8049596524 28.7617402820 26.4160344800 # F
476 1 1 0.1062 15.8316362568 28.5419124799 25.7882764176 # C
477 1 2 -0.1457 15.8238963517 27.4568371817 25.7929519186 # F