LAMMPS output created by EMC v9.4.4, build Aug  6 2019 08:14:42

        7994  atoms
6867 bonds
10430 angles
13377 dihedrals

           8  atom types
           7  bond types
          12  angle types
          14  dihedral types

             0    43.07791893  xlo xhi
             0    43.07791893  ylo yhi
             0    43.07791893  zlo zhi

Masses

       1   12.01115  # c
       2   18.99840  # f
       3   15.99940  # oc
       4   32.06400  # s
       5   15.99940  # o=       
	   6    22.990 	 # na+
       7    1.00797  # hw
       8    15.99940  # o*

Atoms

1 1 1 0.3275 22.3316955170 42.6864813197 11.8536233998 # C
2 1 2 -0.1576 23.2886267087 41.5308917300 12.3073321368 # F
3 1 2 -0.1576 22.4890041317 42.7989806890 12.8516397480 # F
4 1 1 0.3275 21.0701555378 42.6750254754 12.1183826568 # C
5 1 2 -0.1576 21.3145996242 0.4696744199 12.4556036292 # F
6 1 2 -0.1576 21.2171063497 41.7049915317 12.1810072392 # F
7 1 1 0.3275 20.1897769027 42.7811713860 12.1646706777 # C
8 1 2 -0.1576 20.4768618207 42.2968819725 11.3831569869 # F
9 1 2 -0.1576 19.6083495174 42.6242415156 13.4494489008 # F
10 1 1 0.3275 19.5892698384 0.4326024553 12.7432319401 # C
11 1 2 -0.1576 20.1429819069 0.1243569886 13.7398839111 # F
12 1 2 -0.1576 19.7998469368 1.7894325355 12.6748411143 # F
13 1 1 0.3275 18.6469567432 0.3523558426 13.3139617304 # C
14 1 2 -0.1576 18.2174548818 42.3665335012 14.0153774918 # F
15 1 2 -0.1576 18.8863539758 0.4973178368 14.2957411136 # F
16 1 1 0.3275 18.0980150547 0.9486523947 13.2225944898 # C
17 1 2 -0.1576 18.4142738916 2.1010872683 13.5762812805 # F
18 1 2 -0.1576 17.7125363674 1.3405649376 12.4932299754 # F
19 1 1 0.3275 17.4126110386 0.2148813353 14.0300189069 # C
20 1 2 -0.1576 18.0898432665 42.8815988048 14.7802830412 # F
21 1 2 -0.1576 16.5561223097 0.0031868996 13.9886069012 # F
22 1 1 0.3275 17.2896407347 1.5944046045 13.5504118086 # C
23 1 2 -0.1576 18.2872875868 1.5829649770 12.2766813100 # F
24 1 2 -0.1576 16.2985629681 2.4056475903 13.8891427303 # F
25 1 1 0.3275 17.6578169881 2.4533521265 13.1361713541 # C
26 1 2 -0.1576 17.8120429798 3.6654859197 13.1192584151 # F
27 1 2 -0.1576 18.6162045227 2.4607036522 12.5341589636 # F
28 1 1 0.3275 18.3904118014 1.5134544188 13.6591640848 # C
29 1 2 -0.1576 18.6358794521 43.0713222803 13.8770289607 # F
30 1 2 -0.1576 19.2461110960 1.6621139484 14.0127995000 # F
31 1 1 0.3275 17.7055325496 1.9792407094 14.5961785841 # C
32 1 2 -0.1576 18.2895698817 1.8356539399 15.2648297833 # F
33 1 2 -0.1576 17.1883929306 2.0668735903 15.3514556264 # F
34 1 1 0.3275 17.0850348168 2.7013233231 14.1291251046 # C
35 1 2 -0.1576 16.3526518858 2.7830339911 13.3842919294 # F
36 1 2 -0.1576 17.0173395081 3.2666600275 15.2741954771 # F
37 1 1 0.3275 16.3273215485 3.5406525445 13.6082970913 # C
38 1 2 -0.1576 16.6528074129 3.6320705769 12.4356166418 # F
39 1 2 -0.1576 15.3811379016 3.5454899001 13.2409952491 # F
40 1 1 0.3275 16.5279791247 4.4713965562 14.2157896550 # C
41 1 2 -0.1576 16.7211417367 4.7742941599 15.3048635476 # F
42 1 2 -0.1576 16.1250163234 5.6774153971 13.8883029986 # F
43 1 1 0.2465 15.8238704384 3.9903475242 14.1160830007 # C
44 1 2 -0.1336 15.8497852562 2.9886880188 14.1031869435 # F
45 1 2 -0.1336 15.3991218913 4.7843798986 13.4224242841 # F
46 1 1 0.1317 15.4002942634 3.9420066710 15.0858906137 # C
47 1 2 -0.1193 15.0999255838 4.4909070027 15.9476611021 # F
48 1 3 -0.3109 14.8373922968 3.5753769443 14.3581732319 # Oc
49 1 1 0.4954 14.1262829083 3.8740801370 13.5959599221 # C
50 1 2 -0.1280 13.9406079951 4.0051718246 14.5910983271 # F
51 1 2 -0.1559 14.3434455477 2.7934740004 13.0566033833 # F
52 1 1 0.0465 13.3068405060 4.8909690050 12.7770971756 # C
53 1 2 -0.1122 13.3239348802 4.7525589343 11.4800370045 # F
54 1 1 0.5842 13.5083495171 5.9971745664 12.7336221801 # C
55 1 2 -0.1563 15.1592105741 5.9158122175 12.6415355827 # F
56 1 2 -0.1736 13.7693461271 6.5202003487 11.7644976426 # F
57 1 2 -0.1844 12.9675656288 6.7397962175 13.1084532479 # F
58 1 3 -0.2516 12.4216637015 5.8194346044 13.1685773812 # Oc
59 1 1 0.4557 11.4947740109 6.2613790898 13.2198069089 # C
60 1 2 -0.1368 10.6905745618 5.8176755340 12.9171053667 # F
61 1 2 -0.1393 10.8548255027 6.5863350188 13.7043260055 # F
62 1 1 0.1062 11.8290538131 6.7560069988 14.0634016341 # C
63 1 2 -0.1457 11.6975398003 6.3296977665 14.9594362382 # F
64 1 2 -0.1482 12.5773805985 7.3028701879 14.3873676141 # F
65 1 4 1.1345 11.2498979020 7.5351760355 13.7315900489 # S
66 1 5 -0.6371 11.5587680330 7.8037676263 12.5624011350 # Os
67 1 5 -0.6371 10.0978867970 7.0073148136 14.0782909509 # Os
68 1 5 -0.6371 10.3375221225 8.5219115051 14.3609786187 # Os
69 1 6 1.0000 9.8269759986 9.0565458695 13.4930834770 # Na
70 1 1 0.3275 16.4650210137 3.8049935399 15.6749933905 # C
71 1 2 -0.1576 16.1035818831 4.6579739159 15.8426204499 # F
72 1 2 -0.1576 15.7492914020 2.5417927000 14.8156994794 # F
73 1 1 0.3275 17.8420406356 3.9352697765 16.1673861044 # C
74 1 2 -0.1576 18.1890166643 3.1935156923 15.1118752067 # F
75 1 2 -0.1576 18.1500532577 2.9756518282 17.1968088175 # F
76 1 1 0.3275 18.9730815941 4.4409625685 16.6123685908 # C
77 1 2 -0.1576 19.3410534018 3.4255440199 17.0132420551 # F
78 1 2 -0.1576 19.4605136323 5.0302042854 15.9136532621 # F
79 1 1 0.3275 19.5910259814 5.1521462691 17.1701052765 # C
80 1 2 -0.1576 19.7066877767 4.8448462011 18.1862691285 # F
81 1 2 -0.1576 18.4226345046 5.0610540251 17.3499887911 # F
82 1 1 0.3275 20.4322044238 5.0893235871 17.5653606808 # C
83 1 2 -0.1576 21.4727643071 4.1443978493 17.6802359882 # F
84 1 2 -0.1576 20.9910555363 6.0837591472 17.2456275213 # F
85 1 1 0.3275 20.4452728017 5.0837217495 18.7664482625 # C
86 1 2 -0.1576 20.9974752224 4.2902842219 19.2298184067 # F
87 1 2 -0.1576 20.9518109456 6.0006136557 19.0023194120 # F
88 1 1 0.3275 19.3906166420 4.9078276305 19.3119362772 # C
89 1 2 -0.1576 19.2140119621 3.6820616099 19.5798863151 # F
90 1 2 -0.1576 19.0814430217 4.7869755182 20.2680530825 # F
91 1 1 0.3275 18.5353608038 5.4700347385 18.7953894603 # C
92 1 2 -0.1576 18.9108326780 5.9676274349 18.2279079868 # F
93 1 2 -0.1576 18.1316539396 6.3882783846 19.5320664198 # F
94 1 1 0.3275 17.5053216216 5.3185141970 18.0331655335 # C
95 1 2 -0.1576 17.4617642607 5.8606406732 17.5834380971 # F
96 1 2 -0.1576 18.0250590812 4.3842247465 17.5686791693 # F
97 1 1 0.3275 16.3964602225 5.1037140777 18.5666551389 # C
98 1 2 -0.1576 16.5223434052 4.0654990004 18.4540507764 # F
99 1 2 -0.1576 16.0357049980 5.5628034038 17.5920605238 # F
100 1 1 0.3275 15.1206939151 5.5235192325 19.6024506187 # C
101 1 2 -0.1576 15.7831167570 6.0423392102 18.9165531348 # F
102 1 2 -0.1576 15.2407338870 4.7572231906 20.2192573436 # F
103 1 1 0.3275 14.3681204451 6.5769127152 20.2723794656 # C
104 1 2 -0.1576 15.0413534361 6.1407538516 21.3616111715 # F
105 1 2 -0.1576 13.8982263113 7.0789526361 21.1413051295 # F
106 1 1 0.3275 13.8693062564 6.8274960041 19.7214190053 # C
107 1 2 -0.1576 14.1224757446 7.8058433943 20.2149663733 # F
108 1 2 -0.1576 13.2116722984 7.1700745062 18.8217902856 # F
109 1 1 0.3275 13.1613842167 6.1377849588 20.6678947369 # C
110 1 2 -0.1576 12.5393607430 5.1683903408 20.2708592950 # F
111 1 2 -0.1576 12.2130368859 6.1974683469 20.1031856586 # F
112 1 1 0.2465 12.6836876480 6.5587108534 21.8379237880 # C
113 1 2 -0.1336 12.6513356022 5.8380838782 22.3316036018 # F
114 1 2 -0.1336 11.6384489111 6.7585910008 21.1228489337 # F
115 1 1 0.1317 12.2172021169 7.5946092267 22.7183181427 # C
116 1 2 -0.1193 11.9879116457 8.5899768786 22.6146539409 # F
117 1 3 -0.3109 10.8443940143 7.2502854962 22.7283938830 # Oc
118 1 1 0.4954 10.1018258720 7.7914987420 23.4981245561 # C
119 1 2 -0.1280 11.1320897668 8.5515888276 23.7149669741 # F
120 1 2 -0.1559 9.4875123414 8.9243761665 23.4710576746 # F
121 1 1 0.0465 9.5735104741 7.1646470156 24.3909251475 # C
122 1 2 -0.1122 10.5472889988 6.5245234830 24.6716509146 # F
123 1 1 0.5842 8.2182465929 7.0336088108 23.7803595512 # C
124 1 2 -0.1563 8.8531667176 6.4924574543 23.6266621928 # F
125 1 2 -0.1736 7.2867134580 6.6839231693 23.8867702339 # F
126 1 2 -0.1844 8.0122681270 8.0570430905 23.5759217196 # F
127 1 3 -0.2516 8.5302651919 7.0985618492 24.5717607359 # Oc
128 1 1 0.4557 7.8236879412 7.0676726827 25.4058700963 # C
129 1 2 -0.1368 7.8947321807 7.7951403313 25.7166639947 # F
130 1 2 -0.1393 8.6437762523 6.0455480126 26.0639531513 # F
131 1 1 0.1062 6.8207181159 6.6158397073 24.7008501801 # C
132 1 2 -0.1457 7.1603885557 5.8418675536 23.6582892472 # F
133 1 2 -0.1482 5.8788465808 6.5348931218 23.4294291419 # F
134 1 4 1.1345 5.8485134146 6.2604427102 25.1939515381 # S
135 1 5 -0.6371 6.3071665630 5.7151260134 25.7615231466 # Os
136 1 5 -0.6371 6.1051774256 7.7009913222 25.4768260554 # Os
137 1 5 -0.6371 4.7762383910 5.8568574262 25.3890525652 # Os
138 1 6 1.0000 3.9479570060 5.1466573528 26.0575240348 # Na
139 1 1 0.3275 12.4781256949 7.2909569552 24.1357118306 # C
140 1 2 -0.1576 12.8594262171 8.1588393503 24.8078357422 # F
141 1 2 -0.1576 13.1462026694 6.7839623892 23.8978424260 # F
142 1 1 0.3275 12.2745421255 6.5830813161 24.8957160780 # C
143 1 2 -0.1576 13.0869112748 6.8647678402 26.0769647548 # F
144 1 2 -0.1576 11.0970142326 7.1447884654 25.4524757120 # F
145 1 1 0.3275 11.7832187126 5.5547898105 24.3598103185 # C
146 1 2 -0.1576 12.2560645522 4.8212801170 24.9370915159 # F
147 1 2 -0.1576 11.8355528712 4.8064082551 23.2047283413 # F
148 1 1 0.3275 11.2319574100 6.5323835475 23.7808778957 # C
149 1 2 -0.1576 11.8611441529 6.7451497752 23.1640344551 # F
150 1 2 -0.1576 11.7430226581 7.6719273831 23.8771362612 # F
151 1 1 0.3275 10.4113319436 6.4221868785 23.8653307592 # C
152 1 2 -0.1576 9.8593296327 5.8004087616 23.8976195774 # F
153 1 2 -0.1576 9.8964059926 6.4464184395 25.0764769922 # F
154 1 1 0.3275 10.3058465843 6.8197803845 22.9176800077 # C
155 1 2 -0.1576 10.1370010390 7.6295333159 22.4984211742 # F
156 1 2 -0.1576 9.1807171844 7.1581419638 22.7551561768 # F
157 1 1 0.3275 11.4563326321 5.9236212157 22.4713123553 # C
158 1 2 -0.1576 12.4030790121 5.6744112404 23.2844026393 # F
159 1 2 -0.1576 10.9965694334 4.6206770465 22.7560642520 # F
160 1 1 0.3275 12.1502906511 6.1272135798 22.0574518027 # C
161 1 2 -0.1576 12.3977091257 7.3227167944 21.5010457292 # F
162 1 2 -0.1576 13.4742999681 5.8671274980 22.0648185148 # F
163 1 1 0.3275 12.5968643507 4.8016841268 21.9117390508 # C
164 1 2 -0.1576 12.3762559384 4.5775282534 20.8046157157 # F
165 1 2 -0.1576 12.0535414657 4.2300502138 22.4302714629 # F
166 1 1 0.3275 13.3673216566 4.5937060366 22.6294492830 # C
167 1 2 -0.1576 12.4374017807 3.5810338673 22.6767901262 # F
168 1 2 -0.1576 13.9193204975 5.3644308566 21.9627717262 # F
169 1 1 0.3275 14.4347914004 5.1791095246 23.3886525801 # C
170 1 2 -0.1576 13.6490124647 5.7015277823 22.8892988578 # F
171 1 2 -0.1576 14.7727970315 4.1494311939 23.3871821862 # F
172 1 1 0.3275 15.0806657275 5.6637581192 24.0476251463 # C
173 1 2 -0.1576 15.7753151083 4.7036867095 23.8573552126 # F
174 1 2 -0.1576 14.5827490358 5.9099921500 24.9755035987 # F
175 1 1 0.3275 15.2426612786 6.8682158193 24.1171403123 # C
176 1 2 -0.1576 16.5655300492 6.3538725321 24.4427830087 # F
177 1 2 -0.1576 14.3898878813 6.6851374670 24.8604439965 # F
178 1 1 0.3275 14.8042054983 7.4372061164 23.4221178072 # C
179 1 2 -0.1576 13.9361464449 7.2418729835 23.9157154427 # F
180 1 2 -0.1576 14.9879750962 6.7342433695 22.3430056710 # F
181 1 1 0.2465 14.6243029737 8.8044686787 22.9709552672 # C
182 1 2 -0.1336 13.8428096520 9.2851127734 22.5158503373 # F
183 1 2 -0.1336 15.6571977112 8.1912871325 22.6502139621 # F
184 1 1 0.1317 15.0411896281 9.7788648471 23.4873480082 # C
185 1 2 -0.1193 14.6021362615 10.3240008089 24.2431054658 # F
186 1 3 -0.3109 15.5602131291 9.6027944107 24.4967973705 # Oc
187 1 1 0.4954 15.4502972649 9.8814962667 25.4621689660 # C
188 1 2 -0.1280 16.3091487213 10.5692538756 25.5461369685 # F
189 1 2 -0.1559 15.9688506145 10.0436501343 26.2642369120 # F
190 1 1 0.0465 14.7834919795 9.1725942368 26.4450943514 # C
191 1 2 -0.1122 14.8391948042 10.1921199621 26.4973489209 # F
192 1 1 0.5842 14.7959754026 8.7227490692 27.5256692429 # C
193 1 2 -0.1563 13.7760050909 8.9758083237 27.0021076914 # F
194 1 2 -0.1736 15.7255708419 9.1531120812 28.1359481364 # F
195 1 2 -0.1844 13.9612808966 8.1424013632 27.6951243179 # F
196 1 3 -0.2516 13.8432833838 8.8785529675 26.0125617843 # Oc
197 1 1 0.4557 13.6535242372 7.9972475440 25.6135094351 # C
198 1 2 -0.1368 13.6919303292 7.8777266425 24.1273464395 # F
199 1 2 -0.1393 13.7790380017 6.6437848814 25.6954187192 # F
200 1 1 0.1062 13.1213146482 8.1351552294 26.6009062812 # C
201 1 2 -0.1457 12.5134350871 6.7384727116 26.6557505271 # F
202 1 2 -0.1482 12.2229321700 8.4922096316 26.9946708884 # F
203 1 4 1.1345 13.0959605371 9.0318968363 27.2850720666 # S
204 1 5 -0.6371 12.0422380009 9.5986164424 27.6437625015 # Os
205 1 5 -0.6371 13.0529729687 10.1836078973 26.7376451671 # Os
206 1 5 -0.6371 13.8296374509 8.9900766722 27.7212015713 # Os
207 1 6 1.0000 14.3707262566 9.3614929905 28.3891754848 # Na
208 1 1 0.3275 15.0259772109 10.6208833453 22.7738140259 # C
209 1 2 -0.1576 14.2575880462 11.4760802607 22.9338531122 # F
210 1 2 -0.1576 15.2983457749 11.5909662294 22.6738520188 # F
211 1 1 0.3275 15.1564692385 10.3460023510 21.6834863893 # C
212 1 2 -0.1576 15.2032585880 8.8888008534 21.8819115706 # F
213 1 2 -0.1576 14.7496026869 10.4746100210 20.7909103125 # F
214 1 1 0.3275 15.5926142924 11.3876735123 21.6005171339 # C
215 1 2 -0.1576 16.1890359161 12.5501586646 21.6661553555 # F
216 1 2 -0.1576 15.0472092036 11.8629470853 20.8788557062 # F
217 1 1 0.3275 16.3733284939 11.1647903451 21.8512937572 # C
218 1 2 -0.1576 16.8436773606 12.2686456644 22.6141268826 # F
219 1 2 -0.1576 15.9134609076 10.5535397648 22.5116206739 # F
220 1 1 0.3275 16.4228172249 10.8427428644 20.5777245571 # C
221 1 2 -0.1576 17.3311108334 11.1804178660 19.9205668237 # F
222 1 2 -0.1576 15.8203380491 11.6643940978 19.9250580712 # F
223 1 1 0.3275 16.4997229292 9.4969946924 20.7361696239 # C
224 1 2 -0.1576 17.3189098633 8.9920731606 20.2832054586 # F
225 1 2 -0.1576 16.9948163095 9.5049983926 21.5374079415 # F
226 1 1 0.3275 15.5504645419 9.0830757084 20.5649201473 # C
227 1 2 -0.1576 15.9868748673 8.6740208164 21.3268751345 # F
228 1 2 -0.1576 15.5264765000 9.8789141149 19.6139451916 # F
229 1 1 0.3275 14.8982274948 9.5046801164 20.4865525366 # C
230 1 2 -0.1576 13.9961013205 8.8831279436 20.9616528361 # F
231 1 2 -0.1576 15.8149515681 9.9464472644 21.2282846033 # F
232 1 1 0.3275 14.6692293766 9.6740129724 19.6246623501 # C
233 1 2 -0.1576 14.4161841218 10.6913947963 19.9197176861 # F
234 1 2 -0.1576 15.5116777079 9.4722036206 18.8977016654 # F
235 1 1 0.3275 13.8059531276 8.7730596627 19.4442659286 # C
236 1 2 -0.1576 13.7401966744 8.3363130786 20.1648794406 # F
237 1 2 -0.1576 13.0783782030 9.5160112093 19.1031918175 # F
238 1 1 0.3275 13.7881291951 8.0136169040 18.7134614099 # C
239 1 2 -0.1576 13.8201559124 7.2535260061 18.2376642656 # F
240 1 2 -0.1576 13.9633819989 8.8738860999 17.3315539852 # F
241 1 1 0.3275 12.9839813013 7.9598542771 18.7031415808 # C
242 1 2 -0.1576 11.9383990609 8.2158891440 18.3729373294 # F
243 1 2 -0.1576 12.7440071451 7.7291770351 19.5990216467 # F
244 1 1 0.3275 12.9249960834 8.1167477932 17.4173040788 # C
245 1 2 -0.1576 11.8320948103 7.7906559915 17.4028259927 # F
246 1 2 -0.1576 13.4549142912 7.6290992308 16.8284152820 # F
247 1 1 0.3275 13.2887658259 9.4294789166 16.8334454456 # C
248 1 2 -0.1576 13.9281672757 10.1432516158 17.3966151267 # F
249 1 2 -0.1576 12.0927944198 9.5705014447 16.3561028526 # F
250 1 1 0.2465 13.3193848878 10.4891195120 16.5601885447 # C
251 1 2 -0.1336 12.8174737048 9.9781659576 15.4408664780 # F
252 1 2 -0.1336 12.3664866817 9.9999090735 17.3536523827 # F
253 1 1 0.1317 14.0075921930 11.3631119665 16.1148170586 # C
254 1 2 -0.1193 14.0564416052 10.5731777014 15.0897239918 # F
255 1 3 -0.3109 13.4560679542 12.3377560726 16.1497285921 # Oc
256 1 1 0.4954 14.0267992366 12.7820286689 15.6527453469 # C
257 1 2 -0.1280 14.7106400076 12.7945441796 16.0841305659 # F
258 1 2 -0.1559 14.1363377733 12.6979896588 14.5501497798 # F
259 1 1 0.0465 13.8944983019 13.8748213059 15.6210393483 # C
260 1 2 -0.1122 12.8540615548 14.3122365137 15.1631854431 # F
261 1 1 0.5842 14.6633096831 13.4021357459 14.8349317098 # C
262 1 2 -0.1563 14.5863897906 14.0380851559 14.6893779482 # F
263 1 2 -0.1736 15.6643831369 13.0063274779 15.5851746049 # F
264 1 2 -0.1844 15.5388675593 12.4905294741 14.0564362899 # F
265 1 3 -0.2516 14.2965158927 14.2695566547 16.6271580944 # Oc
266 1 1 0.4557 15.1499117048 13.7633065120 17.8956241655 # C
267 1 2 -0.1368 15.2864637507 12.9541954000 18.0015030851 # F
268 1 2 -0.1393 15.7923710210 14.0655306171 17.1789427311 # F
269 1 1 0.1062 14.9829401312 14.7891529202 18.4641874644 # C
270 1 2 -0.1457 14.6049504693 15.3490401185 18.0883323904 # F
271 1 2 -0.1482 15.3093188657 15.1302405788 19.1122698660 # F
272 1 4 1.1345 15.4297205046 14.2567997123 19.4138471672 # S
273 1 5 -0.6371 15.2528747954 14.4524389134 20.6010621329 # Os
274 1 5 -0.6371 15.2485959496 13.5463443694 18.7519934313 # Os
275 1 5 -0.6371 16.4782204823 14.1336565473 19.3883068034 # Os
276 1 6 1.0000 17.1333214483 13.2138325753 19.0589952552 # Na
277 1 1 0.3275 14.1433563848 11.6638695332 17.2780933392 # C
278 1 2 -0.1576 14.4628850468 11.4393389674 18.4510026800 # F
279 1 2 -0.1576 13.8352993635 13.0643507780 17.8480174352 # F
280 1 1 0.3275 14.8576754540 10.5284507345 17.0201275305 # C
281 1 2 -0.1576 16.0107433644 10.6681384060 16.9143251504 # F
282 1 2 -0.1576 14.4688283802 10.0011002848 15.9358989786 # F
283 1 1 0.3275 15.0573321040 9.8965864991 18.0800929331 # C
284 1 2 -0.1576 15.8561548625 8.9462180864 18.0102967226 # F
285 1 2 -0.1576 15.9323447126 10.7216279213 18.4014111906 # F
286 1 1 0.3275 13.9895322519 9.9339680076 18.4748396155 # C
287 1 2 -0.1576 14.0058498553 10.8725437041 18.0801268490 # F
288 1 2 -0.1576 13.5271339336 9.9737161132 19.3829907257 # F
289 1 1 0.3275 13.5457517767 9.4653498498 17.5740164231 # C
290 1 2 -0.1576 12.1320782937 9.0716864273 17.2448742797 # F
291 1 2 -0.1576 13.4134414230 8.6462288716 18.2523349876 # F
292 1 1 0.3275 14.6642901992 9.1488821639 17.3561826073 # C
293 1 2 -0.1576 14.9881157895 8.5143219231 16.5611654607 # F
294 1 2 -0.1576 14.4115771728 9.2904877579 16.4608608662 # F
295 1 1 0.3275 14.6322819102 8.2352756966 17.6709994229 # C
296 1 2 -0.1576 15.3681204950 7.6914341423 17.0686564099 # F
297 1 2 -0.1576 14.3336333338 7.3861954536 16.9924750197 # F
298 1 1 0.3275 15.0989802639 8.8697637029 18.4465365622 # C
299 1 2 -0.1576 14.7389363903 9.4299305520 18.9858947780 # F
300 1 2 -0.1576 15.4874066296 9.0161194616 17.1766646613 # F
301 1 1 0.3275 15.7391109512 7.8308578056 19.0194184409 # C
302 1 2 -0.1576 16.6593339958 7.5831424600 18.1966846582 # F
303 1 2 -0.1576 15.5681882466 6.9179188733 19.6031369394 # F
304 1 1 0.3275 16.3957539787 8.0005385427 19.8456940338 # C
305 1 2 -0.1576 16.7100744052 7.3126592978 19.2091997416 # F
306 1 2 -0.1576 16.4535301354 8.1317634461 20.9566847340 # F
307 1 1 0.3275 15.9284285988 8.9366477903 19.7404022196 # C
308 1 2 -0.1576 14.8635597524 8.7009613571 19.4863795834 # F
309 1 2 -0.1576 15.9990620449 9.8530691378 20.2478872319 # F
310 1 1 0.3275 16.2692007971 9.6436374234 19.0048010548 # C
311 1 2 -0.1576 16.7708525509 9.9991974108 17.5165359573 # F
312 1 2 -0.1576 15.2482197374 10.2405820813 18.5433657133 # F
313 1 1 0.3275 16.9349106102 10.5407483479 19.4501082246 # C
314 1 2 -0.1576 16.2177854911 10.8047585665 19.5681875589 # F
315 1 2 -0.1576 17.3252980179 10.0811416634 20.4360116217 # F
316 1 1 0.3275 17.7349108058 10.8292036927 18.9730081390 # C
317 1 2 -0.1576 17.6300796290 11.5302392611 19.3926763021 # F
318 1 2 -0.1576 17.4457737208 9.9797052303 17.9968724653 # F
319 1 1 0.2465 18.4032303629 10.9561580023 19.4233130348 # C
320 1 2 -0.1336 18.7832623073 11.6458755488 19.4939531337 # F
321 1 2 -0.1336 18.0222082738 10.4649414877 20.1704228310 # F
322 1 1 0.1317 19.0590668679 10.0662697974 19.0917833801 # C
323 1 2 -0.1193 19.3716509182 9.1445326050 19.3714348941 # F
324 1 3 -0.3109 19.8480873657 10.6263894812 19.7887301962 # Oc
325 1 1 0.4954 20.7429181162 11.6653681360 20.1776354184 # C
326 1 2 -0.1280 20.7172271101 11.8705493601 21.2546529241 # F
327 1 2 -0.1559 20.9964693420 11.9429048573 19.3146771081 # F
328 1 1 0.0465 21.4306310668 11.0479764453 20.2761908574 # C
329 1 2 -0.1122 21.7472953647 11.6929741096 19.9380934363 # F
330 1 1 0.5842 20.9872994054 11.5253449661 21.5919960585 # C
331 1 2 -0.1563 21.1975333078 12.5246071864 21.7546170461 # F
332 1 2 -0.1736 19.7055453977 11.4951641260 21.9683572653 # F
333 1 2 -0.1844 21.5750011510 10.5453993635 21.9233358519 # F
334 1 3 -0.2516 21.8842237323 10.0965069103 20.2911159414 # Oc
335 1 1 0.4557 22.0465472281 9.0332570330 20.9111870876 # C
336 1 2 -0.1368 21.7384483244 8.8528107295 19.7028906833 # F
337 1 2 -0.1393 21.2628993746 8.2939950436 21.4079516430 # F
338 1 1 0.1062 22.7514409970 9.4476236335 21.0001324493 # C
339 1 2 -0.1457 23.4325063629 8.8027967740 21.5109166926 # F
340 1 2 -0.1482 22.5366458110 10.9068502146 21.0333368865 # F
341 1 4 1.1345 23.4590611058 9.4918167605 20.2803643143 # S
342 1 5 -0.6371 23.0340453092 9.3534253481 19.3141896997 # Os
343 1 5 -0.6371 24.1361877837 10.6628592752 20.0215315275 # Os
344 1 5 -0.6371 24.1951511760 8.7226290381 20.8079830734 # Os
345 1 6 1.0000 24.9550213167 9.0995824484 20.7241327820 # Na
346 1 1 0.3275 18.7263940219 9.2874725803 19.0244667011 # C
347 1 2 -0.1576 19.1152390090 8.2715290520 19.5295549286 # F
348 1 2 -0.1576 18.5613804818 9.6052028041 18.3881990964 # F
349 1 1 0.3275 17.8677899423 8.7793194039 18.6832410081 # C
350 1 2 -0.1576 18.1633586525 7.9984325120 18.4930793097 # F
351 1 2 -0.1576 17.1020460095 8.9499059548 18.3476063777 # F
352 1 1 0.3275 18.1212523309 8.7442422622 19.7924647629 # C
353 1 2 -0.1576 18.0214219080 9.6019399205 19.9588198566 # F
354 1 2 -0.1576 18.7942125401 8.9224639626 20.1937449373 # F
355 1 1 0.3275 18.4091904521 8.2172710852 20.9708318159 # C
356 1 2 -0.1576 19.2874911658 8.0478925499 21.5525423488 # F
357 1 2 -0.1576 17.7894594092 9.3425186413 20.9232450968 # F
358 1 1 0.3275 18.1387545326 7.0424214091 21.1416287913 # C
359 1 2 -0.1576 17.1539558084 6.6644493799 20.9160473192 # F
360 1 2 -0.1576 18.9925144167 6.3729246647 21.5570447285 # F
361 1 1 0.3275 16.8644969407 7.1810649554 21.9466989105 # C
362 1 2 -0.1576 17.4489598821 6.0668086570 21.6498498287 # F
363 1 2 -0.1576 15.7430616772 7.2910831851 21.8599241092 # F
364 1 1 0.3275 17.6390406147 7.4329885236 22.9411241323 # C
365 1 2 -0.1576 18.4688139034 7.1241241220 22.5912010032 # F
366 1 2 -0.1576 18.2415659413 8.1378369594 23.0846966422 # F
367 1 1 0.3275 16.9769621618 7.6322564865 23.6016992776 # C
368 1 2 -0.1576 16.8285561966 7.5050654985 24.6828397883 # F
369 1 2 -0.1576 17.4637200240 8.7298703042 23.5387071320 # F
370 1 1 0.3275 16.1130602255 7.2652254103 22.8734656034 # C
371 1 2 -0.1576 14.9733429383 6.8371779604 23.2339427004 # F
372 1 2 -0.1576 16.3339446623 6.1667394895 22.1083212898 # F
373 1 1 0.3275 16.4343222645 8.0457576432 22.3481971317 # C
374 1 2 -0.1576 16.5250165965 8.8305034254 22.7132041123 # F
375 1 2 -0.1576 17.3544448314 8.3186436281 21.5607991373 # F
376 1 1 0.3275 16.4932208931 7.6039064905 21.5949586035 # C
377 1 2 -0.1576 16.0234571218 6.6285149970 20.7188998985 # F
378 1 2 -0.1576 15.5686351389 7.6448925851 20.7439999185 # F
379 1 1 0.3275 17.2518754481 8.0072996841 20.9282121514 # C
380 1 2 -0.1576 18.0361180255 7.4751657438 20.0013521296 # F
381 1 2 -0.1576 16.4996373157 8.7770418211 20.5183203862 # F
382 1 1 0.3275 18.0084300977 9.0891956586 21.6934185026 # C
383 1 2 -0.1576 18.7377554102 9.2040216539 20.9663637749 # F
384 1 2 -0.1576 18.1894448481 8.1237113808 22.2452593317 # F
385 1 1 0.3275 18.1329295101 10.1308635230 22.1153963268 # C
386 1 2 -0.1576 17.5542335737 10.6177363913 22.0697554934 # F
387 1 2 -0.1576 18.8991228040 9.5623088631 22.1383193886 # F
388 1 1 0.2465 18.9447637405 11.1090825484 21.3699628145 # C
389 1 2 -0.1336 19.0304398876 10.9677011985 20.3553316008 # F
390 1 2 -0.1336 19.1574656069 11.9888770975 21.9557771432 # F
391 1 1 0.1317 19.8562595030 11.1014033948 21.0236344065 # C
392 1 2 -0.1193 19.9039402404 12.1704792682 21.2128204081 # F
393 1 3 -0.3109 20.0657092801 10.3019326451 21.6981101861 # Oc
394 1 1 0.4954 20.1454469469 9.9018705182 22.4416309660 # C
395 1 2 -0.1280 20.3204166795 10.8150391643 22.8903561962 # F
396 1 2 -0.1559 21.0601073414 8.9263610509 22.4830252963 # F
397 1 1 0.0465 19.4496859992 9.5104928435 23.4078055420 # C
398 1 2 -0.1122 19.2394858786 8.5128597782 23.5385520191 # F
399 1 1 0.5842 20.2965515411 9.9046996973 23.8454625668 # C
400 1 2 -0.1563 20.2346964635 8.6738487518 25.0512030291 # F
401 1 2 -0.1736 21.1945500939 9.6998548975 23.1659505112 # F
402 1 2 -0.1844 20.2882851087 10.8949934409 23.8561525584 # F
403 1 3 -0.2516 18.5470161556 10.0395275728 23.8162817095 # Oc
404 1 1 0.4557 18.6484238548 10.8774936584 24.9529605515 # C
405 1 2 -0.1368 18.1322118620 10.2791929496 25.4103527778 # F
406 1 2 -0.1393 17.9510828005 11.9629111186 24.8050958274 # F
407 1 1 0.1062 19.9155078668 11.0166878178 25.1532844999 # C
408 1 2 -0.1457 19.2905193508 10.4165546884 24.4720976579 # F
409 1 2 -0.1482 20.5554135849 12.3312318692 24.8887374560 # F
410 1 4 1.1345 20.2839634879 10.4451887759 25.8677389518 # S
411 1 5 -0.6371 21.0030163695 11.2334099894 26.2486625548 # Os
412 1 5 -0.6371 19.4316493960 9.6161345783 26.4274805177 # Os
413 1 5 -0.6371 20.8693461770 9.8937261967 25.5044637588 # Os
414 1 6 1.0000 21.2407586038 10.2863391501 24.3474691312 # Na
415 1 1 0.3275 19.6527680314 11.3607160206 19.8045738825 # C
416 1 2 -0.1576 19.1845343628 11.8667884586 18.9075870076 # F
417 1 2 -0.1576 19.8991361021 10.4927508083 18.9196985993 # F
418 1 1 0.3275 19.6272940502 12.6498010728 20.0117579002 # C
419 1 2 -0.1576 19.4278800802 13.5879002829 19.8787735364 # F
420 1 2 -0.1576 19.3288239939 12.9237558238 20.7083949142 # F
421 1 1 0.3275 20.1646590187 12.4710613330 19.0244221259 # C
422 1 2 -0.1576 20.7096159373 11.7272666053 18.1322606924 # F
423 1 2 -0.1576 19.3591997026 11.5615904831 18.2125929232 # F
424 1 1 0.3275 20.6422333885 13.7871462599 18.4192154042 # C
425 1 2 -0.1576 21.3318323859 14.4668228325 18.8398484465 # F
426 1 2 -0.1576 20.7632525277 14.1303610979 17.7246820359 # F
427 1 1 0.3275 20.1099624333 14.7843626094 19.2041252598 # C
428 1 2 -0.1576 19.4454023060 13.8637478521 18.5385644007 # F
429 1 2 -0.1576 19.1998566921 15.0231330862 19.0179804559 # F
430 1 1 0.3275 20.8019918481 15.2338079911 20.1237523719 # C
431 1 2 -0.1576 20.4707308599 16.1721758143 19.5042506051 # F
432 1 2 -0.1576 21.1419532602 14.8150192199 21.2336771624 # F
433 1 1 0.3275 21.5491747498 14.7304976574 20.3156904175 # C
434 1 2 -0.1576 22.5936929352 14.9479094494 20.4776537958 # F
435 1 2 -0.1576 22.0950678131 15.8814377793 19.6685411054 # F
436 1 1 0.3275 21.1328347026 13.7536233899 20.7455219485 # C
437 1 2 -0.1576 21.4410142937 13.2064945118 21.3717271651 # F
438 1 2 -0.1576 21.0826644459 12.9931117770 20.5315142286 # F
439 1 1 0.3275 20.0944599940 13.9386601608 21.0578504290 # C
440 1 2 -0.1576 20.1887219819 14.3468894415 21.9334366777 # F
441 1 2 -0.1576 19.4267918000 13.2124475120 21.2322789568 # F
442 1 1 0.3275 19.5081278290 14.2027594625 20.2843527711 # C
443 1 2 -0.1576 20.1134118616 13.9515256789 19.1826509174 # F
444 1 2 -0.1576 18.8648584800 14.9284881590 20.5782922516 # F
445 1 1 0.3275 18.7257548927 13.6923889335 20.3437238612 # C
446 1 2 -0.1576 18.8973749743 13.8869670057 21.1688344483 # F
447 1 2 -0.1576 18.2601852037 13.3649768263 19.3853115936 # F
448 1 1 0.3275 18.4636286269 12.1654228122 20.4965886794 # C
449 1 2 -0.1576 18.9479915917 11.6752353175 20.9652243263 # F
450 1 2 -0.1576 17.1821337097 11.7582271786 20.5158130489 # F
451 1 1 0.3275 18.3609078563 12.8743552817 19.1563082342 # C
452 1 2 -0.1576 17.5993472527 13.5868090622 20.0555995767 # F
453 1 2 -0.1576 18.9227183256 12.8630648768 17.9376508454 # F
454 1 1 0.3275 17.8034525740 11.9814984143 18.3919651498 # C
455 1 2 -0.1576 17.0401076604 11.7750345257 18.8742370306 # F
456 1 2 -0.1576 16.9401484278 12.4303345643 17.7250679914 # F
457 1 1 0.2465 18.5564875980 12.1268388817 17.3215134754 # C
458 1 2 -0.1336 19.7567635316 11.5178626831 17.7420299345 # F
459 1 2 -0.1336 18.1191066717 12.7526764917 16.7933645664 # F
460 1 1 0.1317 18.5657009368 11.8455534278 16.2638571683 # C
461 1 2 -0.1193 19.3459799547 12.2312979966 16.3105424211 # F
462 1 3 -0.3109 18.0655281194 12.3273463186 15.6511483060 # Oc
463 1 1 0.4954 17.8828595438 13.1436568603 14.8334085064 # C
464 1 2 -0.1280 17.9908434606 12.5231563583 13.9786414887 # F
465 1 2 -0.1559 19.2828402619 13.3996748718 14.7192989719 # F
466 1 1 0.0465 17.2039661640 13.8439649680 14.5813045977 # C
467 1 2 -0.1122 16.1319982961 13.5572851282 15.2114560000 # F
468 1 1 0.5842 16.9482395874 13.4699229194 13.3233720536 # C
469 1 2 -0.1563 16.9339678039 12.3850329334 13.5912196790 # F
470 1 2 -0.1736 16.0875310277 14.0175492022 12.8047729058 # F
471 1 2 -0.1844 17.7607737635 13.8473158770 12.4718714259 # F
472 1 3 -0.2516 17.6457008109 14.9094744809 14.3752838404 # Oc
473 1 1 0.4557 18.5172961178 15.1109953697 14.4741443004 # C
474 1 2 -0.1368 19.6062696758 15.0736589622 14.7893959401 # F
475 1 2 -0.1393 19.1770832921 15.8157870010 15.0939499015 # F
476 1 1 0.1062 18.9207540251 14.5109026591 13.5651479165 # C
477 1 2 -0.1457 19.1520736613 14.7654928148 12.5700960301 # F
478 1 2 -0.1482 18.4741855756 13.6364358111 13.2252295075 # F
479 1 4 1.1345 18.2352889150 14.9613509869 13.1028232665 # S
480 1 5 -0.6371 18.1147197648 15.4010477944 12.2872207174 # Os
481 1 5 -0.6371 17.6308849024 15.5164241728 13.9567430289 # Os
482 1 5 -0.6371 17.1146560448 14.3373441582 12.8468685702 # Os
483 1 6 1.0000 16.8165221894 13.7836586327 12.0680611529 # Na