LAMMPS data file Created by LigParGen - (Written by Leela S. Dodda)

      14 atoms
      13 bonds
      24 angles
      27 dihedrals
       8 impropers
 
      14 atom types
      13 bond types
      24 angle types
      27 dihedral types
       8 improper types
 
   -2.990710    47.009290 xlo xhi
    0.109920    50.109920 ylo yhi
   -1.027170    48.972830 zlo zhi

Masses

       1     12.011  
       2     12.011  
       3     12.011  
       4     12.011  
       5      1.008  
       6      1.008  
       7      1.008  
       8      1.008  
       9      1.008  
      10      1.008  
      11      1.008  
      12      1.008  
      13      1.008  
      14      1.008  

Pair Coeffs 

       1      0.066  3.5000000 
       2      0.066  3.5000000 
       3      0.066  3.5000000 
       4      0.066  3.5000000 
       5      0.030  2.5000000 
       6      0.030  2.5000000 
       7      0.030  2.5000000 
       8      0.030  2.5000000 
       9      0.030  2.5000000 
      10      0.030  2.5000000 
      11      0.030  2.5000000 
      12      0.030  2.5000000 
      13      0.030  2.5000000 
      14      0.030  2.5000000 

Bond Coeffs 

       1   268.0000     1.5290 
       2   268.0000     1.5290 
       3   268.0000     1.5290 
       4   340.0000     1.0900 
       5   340.0000     1.0900 
       6   340.0000     1.0900 
       7   340.0000     1.0900 
       8   340.0000     1.0900 
       9   340.0000     1.0900 
      10   340.0000     1.0900 
      11   340.0000     1.0900 
      12   340.0000     1.0900 
      13   340.0000     1.0900 

Angle Coeffs 

       1     58.350    112.700
       2     58.350    112.700
       3     37.500    110.700
       4     37.500    110.700
       5     37.500    110.700
       6     37.500    110.700
       7     37.500    110.700
       8     37.500    110.700
       9     37.500    110.700
      10     37.500    110.700
      11     37.500    110.700
      12     37.500    110.700
      13     37.500    110.700
      14     33.000    107.800
      15     33.000    107.800
      16     37.500    110.700
      17     37.500    110.700
      18     33.000    107.800
      19     33.000    107.800
      20     33.000    107.800
      21     33.000    107.800
      22     37.500    110.700
      23     33.000    107.800
      24     33.000    107.800

Dihedral Coeffs  

       1      1.300     -0.200      0.200      0.000 
       2      0.000      0.000      0.300      0.000 
       3      0.000      0.000      0.300      0.000 
       4      0.000      0.000      0.300      0.000 
       5      0.000      0.000      0.300      0.000 
       6      0.000      0.000      0.300      0.000 
       7      0.000      0.000      0.300      0.000 
       8      0.000      0.000      0.300      0.000 
       9      0.000      0.000      0.300      0.000 
      10      0.000      0.000      0.300      0.000 
      11      0.000      0.000      0.300      0.000 
      12      0.000      0.000      0.300      0.000 
      13      0.000      0.000      0.300      0.000 
      14      0.000      0.000      0.300      0.000 
      15      0.000      0.000      0.300      0.000 
      16      0.000      0.000      0.300      0.000 
      17      0.000      0.000      0.300      0.000 
      18      0.000      0.000      0.300      0.000 
      19      0.000      0.000      0.300      0.000 
      20      0.000      0.000      0.300      0.000 
      21      0.000      0.000      0.300      0.000 
      22      0.000      0.000      0.300      0.000 
      23      0.000      0.000      0.300      0.000 
      24      0.000      0.000      0.300      0.000 
      25      0.000      0.000      0.300      0.000 
      26      0.000      0.000      0.300      0.000 
      27      0.000      0.000      0.300      0.000 

Improper Coeffs 

       1      0.000      -1       2 
       2      0.000      -1       2 
       3      0.000      -1       2 
       4      0.000      -1       2 
       5      0.000      -1       2 
       6      0.000      -1       2 
       7      0.000      -1       2 
       8      0.000      -1       2 

Atoms 

     1      1      1 -0.23920000    1.000  1.00000  0.00000
     2      1      2 -0.17880000   -0.520  1.00000  0.00000
     3      1      3 -0.17870000   -1.078  1.00000  1.42187
     4      1      4 -0.23910000   -2.599  0.99821  1.42187
     5      1      5 0.08050000    1.378  1.00130 -1.02717
     6      1      6 0.08050000    1.391  0.11112  0.50526
     7      1      7 0.08050000    1.391  1.88755  0.50748
     8      1      8 0.08820000   -0.879  0.11730 -0.54202
     9      1      9 0.08820000   -0.879  1.88343 -0.54104
    10      1     10 0.08820000   -0.720  1.88381  1.96214
    11      1     11 0.08820000   -0.717  0.11749  1.96298
    12      1     12 0.08050000   -2.991  1.88517  0.91392
    13      1     13 0.08050000   -2.976  0.99954  2.44903
    14      1     14 0.08050000   -2.989  0.10992  0.91482

Bonds 

     1      1      2      1
     2      2      3      2
     3      3      4      3
     4      4      5      1
     5      5      6      1
     6      6      7      1
     7      7      8      2
     8      8      9      2
     9      9     10      3
    10     10     11      3
    11     11     12      4
    12     12     13      4
    13     13     14      4

Angles 

     1      1      1      2      3
     2      2      2      3      4
     3      3      2      1      5
     4      4      2      1      6
     5      5      2      1      7
     6      6      1      2      8
     7      7      1      2      9
     8      8      2      3     10
     9      9      2      3     11
    10     10      3      4     12
    11     11      3      4     13
    12     12      3      4     14
    13     13      4      3     11
    14     14     13      4     14
    15     15      5      1      7
    16     16      4      3     10
    17     17      3      2      8
    18     18      8      2      9
    19     19      5      1      6
    20     20     12      4     13
    21     21     10      3     11
    22     22      3      2      9
    23     23      6      1      7
    24     24     12      4     14

Dihedrals

     1      1      4      3      2      1 
     2      2      5      1      2      3 
     3      3     12      4      3      2 
     4      4     10      3      2      9 
     5      5     11      3      2      8 
     6      6     11      3      2      9 
     7      7     11      3      2      1 
     8      8     12      4      3     10 
     9      9      9      2      1      5 
    10     10      8      2      1      6 
    11     11      7      1      2      3 
    12     12     13      4      3     10 
    13     13      8      2      3      4 
    14     14     14      4      3      2 
    15     15      9      2      3      4 
    16     16     14      4      3     11 
    17     17     10      3      2      8 
    18     18     13      4      3     11 
    19     19     14      4      3     10 
    20     20      9      2      1      7 
    21     21      6      1      2      3 
    22     22      8      2      1      5 
    23     23      9      2      1      6 
    24     24      8      2      1      7 
    25     25     10      3      2      1 
    26     26     12      4      3     11 
    27     27     13      4      3      2 

Impropers

     1      1      1      2      5      6 
     2      2      1      2      5      7 
     3      3      2      1      3      8 
     4      4      2      9      3      1 
     5      5      3     10      4      2 
     6      6      3      2     11      4 
     7      7      4     12      3     13 
     8      8      4     12      3     14 

