LAMMPS data file Created by LigParGen - (Written by Leela S. Dodda)

      11 atoms
      10 bonds
      18 angles
      18 dihedrals
       6 impropers
 
      11 atom types
      10 bond types
      18 angle types
      18 dihedral types
       6 improper types
 
   -0.374310    49.625690 xlo xhi
    0.049740    50.049740 ylo yhi
   -1.317600    48.682400 zlo zhi

Masses

       1     12.011  
       2     18.998  
       3     18.998  
       4     12.011  
       5     18.998  
       6     18.998  
       7     32.060  
       8     15.999  
       9     15.999  
      10     15.999  
      11      1.008  

Pair Coeffs 

       1      0.066  3.5000000 
       2      0.060  2.9000000 
       3      0.060  2.9000000 
       4      0.066  3.5000000 
       5      0.060  2.9000000 
       6      0.060  2.9000000 
       7      0.250  3.5500000 
       8      0.170  2.9600000 
       9      0.170  2.9600000 
      10      0.170  2.9600000 
      11      0.030  2.5000000 

Bond Coeffs 

       1   367.0000     1.3600 
       2   367.0000     1.3600 
       3   268.0000     1.5290 
       4   367.0000     1.3600 
       5   367.0000     1.3600 
       6   340.0000     1.7700 
       7   700.0000     1.4400 
       8   700.0000     1.4400 
       9   700.0000     1.4400 
      10   340.0000     1.0900 

Angle Coeffs 

       1     77.000    109.100
       2     50.000    109.500
       3     50.000    109.500
       4     50.000    109.500
       5     50.000    114.700
       6     74.000    108.900
       7     74.000    108.900
       8     74.000    108.900
       9     40.000    107.000
      10     77.000    109.100
      11     50.000    109.500
      12    104.000    119.000
      13     50.000    109.500
      14     50.000    109.500
      15     37.500    110.700
      16    104.000    119.000
      17    104.000    119.000
      18     40.000    107.000

Dihedral Coeffs  

       1     -2.500      0.000      0.250      0.000 
       2      0.000      0.000      0.000      0.000 
       3      0.000      0.000      0.000      0.000 
       4     -2.500      0.000      0.250      0.000 
       5      0.000      0.000      0.000      0.000 
       6      0.000      0.000      0.000      0.000 
       7      0.000      0.000      0.000      0.000 
       8      0.000      0.000      0.000      0.000 
       9     -2.500      0.000      0.250      0.000 
      10      0.000      0.000      0.000      0.000 
      11      0.000      0.450      0.000      0.000 
      12      0.000      0.000      0.452      0.000 
      13      0.000      0.000      0.360      0.000 
      14      0.000      0.000      0.360      0.000 
      15     -2.500      0.000      0.250      0.000 
      16      0.000      0.450      0.000      0.000 
      17      0.000      0.000      0.000      0.000 
      18      0.000      0.000      0.000      0.000 

Improper Coeffs 

       1      0.000      -1       2 
       2      0.000      -1       2 
       3      0.000      -1       2 
       4      0.000      -1       2 
       5      0.000      -1       2 
       6      0.000      -1       2 

Atoms 

     1      1      1 0.15400000    1.000  1.00000  0.00000
     2      1      2 -0.15810000   -0.374  1.00000  0.00000
     3      1      3 -0.15810000    1.336  1.00000 -1.31760
     4      1      4 -0.20850000    1.509  2.21414  0.74751
     5      1      5 -0.13020000    1.114  3.36604  0.11368
     6      1      6 -0.13020000    0.892  2.25272  1.98075
     7      1      7 1.27500000    3.313  2.03267  0.90182
     8      1      8 -0.59150000    3.836  2.10383 -0.46369
     9      1      9 -0.59150000    3.739  3.14773  1.75294
    10      1     10 -0.59150000    3.491  0.71581  1.52581
    11      1     11 0.13070000    1.308  0.04974  0.44267

Bonds 

     1      1      2      1
     2      2      3      1
     3      3      4      1
     4      4      5      4
     5      5      6      4
     6      6      7      4
     7      7      8      7
     8      8      9      7
     9      9     10      7
    10     10     11      1

Angles 

     1      1      2      1      3
     2      2      2      1      4
     3      3      1      4      5
     4      4      1      4      6
     5      5      1      4      7
     6      6      4      7      8
     7      7      4      7      9
     8      8      4      7     10
     9      9      2      1     11
    10     10      5      4      6
    11     11      3      1      4
    12     12      9      7     10
    13     13      5      4      7
    14     14      6      4      7
    15     15      4      1     11
    16     16      8      7     10
    17     17      8      7      9
    18     18      3      1     11

Dihedrals

     1      1      5      4      1      2 
     2      2      8      7      4      1 
     3      3      9      7      4      1 
     4      4      6      4      1      3 
     5      5     10      7      4      5 
     6      6     10      7      4      6 
     7      7      9      7      4      6 
     8      8      9      7      4      5 
     9      9      6      4      1      2 
    10     10      8      7      4      5 
    11     11      7      4      1      2 
    12     12     11      1      4      7 
    13     13     11      1      4      5 
    14     14     11      1      4      6 
    15     15      5      4      1      3 
    16     16      7      4      1      3 
    17     17      8      7      4      6 
    18     18     10      7      4      1 

Impropers

     1      1      1      2      3      4 
     2      2      4      1      5      6 
     3      3      4      1      5      7 
     4      4      7      9      4      8 
     5      5      7     10      4      8 
     6      6      1      2     11      3 

