LAMMPS data file Created by LigParGen - (Written by Leela S. Dodda)

      11 atoms
      10 bonds
      18 angles
      18 dihedrals
       6 impropers
 
      11 atom types
      10 bond types
      18 angle types
      18 dihedral types
       6 improper types
 
   -0.354910    49.645090 xlo xhi
   -0.200170    49.799830 ylo yhi
   -1.294760    48.705240 zlo zhi

Masses

       1     12.011  
       2     18.998  
       3     18.998  
       4     18.998  
       5     12.011  
       6     18.998  
       7     18.998  
       8     12.011  
       9     18.998  
      10     18.998  
      11      1.008  

Pair Coeffs 

       1      0.066  3.5000000 
       2      0.060  2.9000000 
       3      0.060  2.9000000 
       4      0.060  2.9000000 
       5      0.066  3.5000000 
       6      0.060  2.9000000 
       7      0.060  2.9000000 
       8      0.066  3.5000000 
       9      0.060  2.9000000 
      10      0.060  2.9000000 
      11      0.030  2.5000000 

Bond Coeffs 

       1   367.0000     1.3600 
       2   367.0000     1.3600 
       3   367.0000     1.3600 
       4   268.0000     1.5290 
       5   367.0000     1.3600 
       6   367.0000     1.3600 
       7   268.0000     1.5290 
       8   367.0000     1.3600 
       9   367.0000     1.3600 
      10   340.0000     1.0900 

Angle Coeffs 

       1     77.000    109.100
       2     77.000    109.100
       3     50.000    109.500
       4     50.000    109.500
       5     50.000    109.500
       6     58.350    112.700
       7     50.000    109.500
       8     50.000    109.500
       9     37.500    110.700
      10     77.000    109.100
      11     50.000    109.500
      12     77.000    109.100
      13     77.000    109.100
      14     40.000    107.000
      15     50.000    109.500
      16     40.000    107.000
      17     50.000    109.500
      18     50.000    109.500

Dihedral Coeffs  

       1     -2.500      0.000      0.250      0.000 
       2      0.000      0.000      0.000      0.000 
       3     -2.500      0.000      0.250      0.000 
       4     -2.500      0.000      0.250      0.000 
       5      0.000      0.000      0.000      0.000 
       6     -2.500      0.000      0.250      0.000 
       7      0.000      0.000      0.000      0.000 
       8     -2.500      0.000      0.250      0.000 
       9     -2.500      0.000      0.250      0.000 
      10      0.000      0.000      0.300      0.000 
      11     -2.500      0.000      0.250      0.000 
      12      0.000      0.000      0.360      0.000 
      13     -2.500      0.000      0.250      0.000 
      14      0.000      0.000      0.360      0.000 
      15      0.000      0.000      0.000      0.000 
      16     -2.500      0.000      0.250      0.000 
      17     -2.500      0.000      0.250      0.000 
      18      0.000      0.000      0.000      0.000 

Improper Coeffs 

       1      0.000      -1       2 
       2      0.000      -1       2 
       3      0.000      -1       2 
       4      0.000      -1       2 
       5      0.000      -1       2 
       6      0.000      -1       2 

Atoms 

     1      1      1 0.38490000    1.000  1.00000  0.00000
     2      1      2 -0.13360000   -0.355  1.00000  0.00000
     3      1      3 -0.13360000    1.397  1.00000 -1.29476
     4      1      4 -0.13360000    1.381 -0.20017  0.51027
     5      1      5 0.15300000    1.577  2.15140  0.80980
     6      1      6 -0.10070000    0.586  2.91642  1.34785
     7      1      7 -0.10070000    2.294  1.67585  1.87196
     8      1      8 0.18190000    2.474  2.98753 -0.07040
     9      1      9 -0.13520000    1.781  3.53052 -1.10336
    10      1     10 -0.13520000    2.986  4.03670  0.63018
    11      1     11 0.15290000    3.316  2.41367 -0.46910

Bonds 

     1      1      2      1
     2      2      3      1
     3      3      4      1
     4      4      5      1
     5      5      6      5
     6      6      7      5
     7      7      8      5
     8      8      9      8
     9      9     10      8
    10     10     11      8

Angles 

     1      1      2      1      3
     2      2      2      1      4
     3      3      2      1      5
     4      4      1      5      6
     5      5      1      5      7
     6      6      1      5      8
     7      7      5      8      9
     8      8      5      8     10
     9      9      5      8     11
    10     10      3      1      4
    11     11      3      1      5
    12     12      6      5      7
    13     13      9      8     10
    14     14     10      8     11
    15     15      6      5      8
    16     16      9      8     11
    17     17      7      5      8
    18     18      4      1      5

Dihedrals

     1      1      6      5      1      2 
     2      2      9      8      5      1 
     3      3      7      5      1      2 
     4      4      6      5      1      3 
     5      5      8      5      1      2 
     6      6      7      5      1      4 
     7      7     10      8      5      1 
     8      8      9      8      5      6 
     9      9      6      5      1      4 
    10     10     11      8      5      1 
    11     11     10      8      5      6 
    12     12     11      8      5      7 
    13     13      9      8      5      7 
    14     14     11      8      5      6 
    15     15      8      5      1      4 
    16     16     10      8      5      7 
    17     17      7      5      1      3 
    18     18      8      5      1      3 

Impropers

     1      1      1      2      3      4 
     2      2      1      2      3      5 
     3      3      5      1      6      7 
     4      4      5      1      6      8 
     5      5      8      9     10      5 
     6      6      8      9     11      5 

