LAMMPS data file Created by LigParGen - (Written by Leela S. Dodda)

      58 atoms
      57 bonds
     110 angles
     147 dihedrals
      36 impropers
 
      58 atom types
      57 bond types
     110 angle types
     147 dihedral types
      36 improper types
 
   -0.356600    49.643400 xlo xhi
   -2.029590    47.970410 ylo yhi
   -8.766470    41.233530 zlo zhi

Masses

       1     12.011  
       2     18.998  
       3     18.998  
       4     18.998  
       5     12.011  
       6     18.998  
       7     18.998  
       8     12.011  
       9     18.998  
      10     18.998  
      11     12.011  
      12     18.998  
      13     18.998  
      14     12.011  
      15     18.998  
      16     18.998  
      17     12.011  
      18     18.998  
      19     18.998  
      20     12.011  
      21     18.998  
      22     18.998  
      23     12.011  
      24     18.998  
      25     18.998  
      26     12.011  
      27     18.998  
      28     12.011  
      29     18.998  
      30     18.998  
      31     12.011  
      32     18.998  
      33     18.998  
      34     12.011  
      35     18.998  
      36     18.998  
      37     15.999  
      38     12.011  
      39     18.998  
      40     18.998  
      41     12.011  
      42     18.998  
      43     12.011  
      44     18.998  
      45     18.998  
      46     18.998  
      47     15.999  
      48     12.011  
      49     18.998  
      50     18.998  
      51     12.011  
      52     18.998  
      53     18.998  
      54     32.060  
      55     15.999  
      56     15.999  
      57     15.999  
      58      1.008  

Pair Coeffs 

       1      0.066  3.5000000 
       2      0.060  2.9000000 
       3      0.060  2.9000000 
       4      0.060  2.9000000 
       5      0.066  3.5000000 
       6      0.060  2.9000000 
       7      0.060  2.9000000 
       8      0.066  3.5000000 
       9      0.060  2.9000000 
      10      0.060  2.9000000 
      11      0.066  3.5000000 
      12      0.060  2.9000000 
      13      0.060  2.9000000 
      14      0.066  3.5000000 
      15      0.060  2.9000000 
      16      0.060  2.9000000 
      17      0.066  3.5000000 
      18      0.060  2.9000000 
      19      0.060  2.9000000 
      20      0.066  3.5000000 
      21      0.060  2.9000000 
      22      0.060  2.9000000 
      23      0.066  3.5000000 
      24      0.060  2.9000000 
      25      0.060  2.9000000 
      26      0.066  3.5000000 
      27      0.060  2.9000000 
      28      0.066  3.5000000 
      29      0.060  2.9000000 
      30      0.060  2.9000000 
      31      0.066  3.5000000 
      32      0.060  2.9000000 
      33      0.060  2.9000000 
      34      0.066  3.5000000 
      35      0.060  2.9000000 
      36      0.060  2.9000000 
      37      0.140  2.9000000 
      38      0.066  3.5000000 
      39      0.060  2.9000000 
      40      0.060  2.9000000 
      41      0.066  3.5000000 
      42      0.060  2.9000000 
      43      0.066  3.5000000 
      44      0.060  2.9000000 
      45      0.060  2.9000000 
      46      0.060  2.9000000 
      47      0.140  2.9000000 
      48      0.066  3.5000000 
      49      0.060  2.9000000 
      50      0.060  2.9000000 
      51      0.066  3.5000000 
      52      0.060  2.9000000 
      53      0.060  2.9000000 
      54      0.250  3.5500000 
      55      0.170  2.9600000 
      56      0.170  2.9600000 
      57      0.170  2.9600000 
      58      0.030  2.5000000 

Bond Coeffs 

       1   367.0000     1.3600 
       2   367.0000     1.3600 
       3   367.0000     1.3600 
       4   268.0000     1.5290 
       5   367.0000     1.3600 
       6   367.0000     1.3600 
       7   268.0000     1.5290 
       8   367.0000     1.3600 
       9   367.0000     1.3600 
      10   268.0000     1.5290 
      11   367.0000     1.3600 
      12   367.0000     1.3600 
      13   268.0000     1.5290 
      14   367.0000     1.3600 
      15   367.0000     1.3600 
      16   268.0000     1.5290 
      17   367.0000     1.3600 
      18   367.0000     1.3600 
      19   268.0000     1.5290 
      20   367.0000     1.3600 
      21   367.0000     1.3600 
      22   268.0000     1.5290 
      23   367.0000     1.3600 
      24   367.0000     1.3600 
      25   268.0000     1.5290 
      26   367.0000     1.3600 
      27   268.0000     1.5290 
      28   367.0000     1.3600 
      29   367.0000     1.3600 
      30   268.0000     1.5290 
      31   367.0000     1.3600 
      32   367.0000     1.3600 
      33   268.0000     1.5290 
      34   367.0000     1.3600 
      35   367.0000     1.3600 
      36   320.0000     1.4100 
      37   320.0000     1.4100 
      38   367.0000     1.3600 
      39   367.0000     1.3600 
      40   268.0000     1.5290 
      41   367.0000     1.3600 
      42   268.0000     1.5290 
      43   367.0000     1.3600 
      44   367.0000     1.3600 
      45   367.0000     1.3600 
      46   320.0000     1.4100 
      47   320.0000     1.4100 
      48   367.0000     1.3600 
      49   367.0000     1.3600 
      50   268.0000     1.5290 
      51   367.0000     1.3600 
      52   367.0000     1.3600 
      53   340.0000     1.7700 
      54   700.0000     1.4400 
      55   700.0000     1.4400 
      56   700.0000     1.4400 
      57   340.0000     1.0900 

Angle Coeffs 

       1     77.000    109.100
       2     77.000    109.100
       3     50.000    109.500
       4     50.000    109.500
       5     50.000    109.500
       6     58.350    112.700
       7     50.000    109.500
       8     50.000    109.500
       9     58.350    112.700
      10     50.000    109.500
      11     50.000    109.500
      12     58.350    112.700
      13     50.000    109.500
      14     50.000    109.500
      15     58.350    112.700
      16     50.000    109.500
      17     50.000    109.500
      18     58.350    112.700
      19     50.000    109.500
      20     50.000    109.500
      21     58.350    112.700
      22     50.000    109.500
      23     50.000    109.500
      24     58.350    112.700
      25     50.000    109.500
      26     58.350    112.700
      27     50.000    109.500
      28     50.000    109.500
      29     58.350    112.700
      30     50.000    109.500
      31     50.000    109.500
      32     58.350    112.700
      33     50.000    109.500
      34     50.000    109.500
      35     50.000    109.500
      36     60.000    109.500
      37     70.000    109.900
      38     70.000    109.900
      39     50.000    109.500
      40     50.000    109.500
      41     58.350    112.700
      42     50.000    109.500
      43     50.000    109.500
      44     50.000    109.500
      45     50.000    109.500
      46     60.000    109.500
      47     70.000    109.900
      48     70.000    109.900
      49     50.000    109.500
      50     50.000    109.500
      51     50.000    109.500
      52     50.000    114.700
      53     74.000    108.900
      54     74.000    108.900
      55     74.000    108.900
      56     37.500    110.700
      57     50.000    109.500
      58     50.000    109.500
      59     77.000    109.100
      60     77.000    109.100
      61     50.000    109.500
      62     50.000    109.500
      63     50.000    109.500
      64     50.000    109.500
      65     77.000    109.100
      66    104.000    119.000
      67     50.000    109.500
      68     50.000    109.500
      69     77.000    109.100
      70     77.000    109.100
      71     77.000    109.100
      72     77.000    109.100
      73     50.000    109.500
      74     77.000    109.100
      75     77.000    109.100
      76     50.000    109.500
      77     50.000    109.500
      78     50.000    109.500
      79     50.000    109.500
      80     77.000    109.100
      81     77.000    109.100
      82     77.000    109.100
      83     77.000    109.100
      84     50.000    109.500
      85     50.000    109.500
      86     40.000    107.000
      87     40.000    107.000
      88     51.650    110.580
      89     51.650    110.580
      90     77.000    109.100
      91     50.000    109.500
      92     50.000    109.500
      93     50.000    109.500
      94     50.000    109.500
      95    104.000    119.000
      96     77.000    109.100
      97     50.000    109.500
      98     50.000    109.500
      99     50.000    109.500
     100     50.000    109.500
     101     50.000    109.500
     102     50.000    109.500
     103     50.000    109.500
     104     77.000    109.100
     105    104.000    119.000
     106     50.000    109.500
     107     50.000    109.500
     108     50.000    109.500
     109     77.000    109.100
     110     50.000    109.500

Dihedral Coeffs  

       1     -2.500      0.000      0.250      0.000 
       2      0.000      0.000      0.000      0.000 
       3      0.000      0.000      0.000      0.000 
       4      0.000      0.000      0.000      0.000 
       5      0.000      0.000      0.000      0.000 
       6      0.000      0.000      0.000      0.000 
       7      0.000      0.000      0.000      0.000 
       8      0.300     -0.400      0.400      0.000 
       9      0.000      0.000      0.000      0.000 
      10      0.000      0.000      0.000      0.000 
      11      0.000      0.000      0.000      0.000 
      12      0.650     -0.250      0.670      0.000 
      13      0.000      5.124      0.000      0.000 
      14      0.000      0.000      0.540      0.000 
      15      0.000      0.000      0.000      0.000 
      16      0.650     -0.250      0.670      0.000 
      17      0.000      5.124      0.000      0.000 
      18      0.000      0.000      0.540      0.000 
      19      0.000      0.000      0.000      0.000 
      20      0.300     -0.400      0.400      0.000 
      21      0.000      0.000      0.000      0.000 
      22      0.000      0.000      0.000      0.000 
      23     -2.500      0.000      0.250      0.000 
      24      1.711     -0.500      0.663      0.000 
      25     -2.500      0.000      0.250      0.000 
      26      0.000      0.000      0.000      0.000 
      27     -2.500      0.000      0.250      0.000 
      28     -2.500      0.000      0.250      0.000 
      29      0.000      7.250      0.000      0.000 
      30      0.000      0.000      0.000      0.000 
      31      0.650     -0.250      0.670      0.000 
      32     -0.550      0.000      0.000      0.000 
      33      0.000      0.000      0.000      0.000 
      34      0.000      0.000      0.000      0.000 
      35     -2.500      0.000      0.250      0.000 
      36     -2.500      0.000      0.250      0.000 
      37      0.000      0.000      0.000      0.000 
      38      0.000      0.000      0.000      0.000 
      39      0.650     -0.250      0.670      0.000 
      40     -2.500      0.000      0.250      0.000 
      41      0.000      0.000      0.000      0.000 
      42      0.000      0.000      0.540      0.000 
      43     -2.500      0.000      0.250      0.000 
      44      0.650     -0.250      0.670      0.000 
      45     -2.500      0.000      0.250      0.000 
      46      0.000      2.170      0.000      0.000 
      47      0.000      0.000      0.360      0.000 
      48      0.000      0.000      0.000      0.000 
      49      0.000      0.000      0.000      0.000 
      50      0.000      0.000      0.000      0.000 
      51      0.000      0.000      0.000      0.000 
      52      0.000      0.000      0.000      0.000 
      53      0.000      0.000      0.000      0.000 
      54      0.000      0.000      0.300      0.000 
      55      0.000      0.000      0.000      0.000 
      56      0.000      0.000      0.000      0.000 
      57     -2.500      0.000      0.250      0.000 
      58     -2.500      0.000      0.250      0.000 
      59      0.000      0.000      0.000      0.000 
      60      0.000      0.000      0.000      0.000 
      61      0.000      5.124      0.000      0.000 
      62      0.000      0.000      0.760      0.000 
      63      0.000      0.000      0.540      0.000 
      64     -2.500      0.000      0.250      0.000 
      65      0.000      0.000      0.760      0.000 
      66     -2.500      0.000      0.250      0.000 
      67      0.000      0.000      0.000      0.000 
      68     -2.500      0.000      0.250      0.000 
      69      1.300     -0.200      0.200      0.000 
      70     -2.500      0.000      0.250      0.000 
      71      0.000      0.000      0.000      0.000 
      72      0.000      0.000      0.360      0.000 
      73     -2.500      0.000      0.250      0.000 
      74     -2.500      0.000      0.250      0.000 
      75      0.000      0.000      0.000      0.000 
      76      0.000      7.250      0.000      0.000 
      77     -2.500      0.000      0.250      0.000 
      78      0.000      0.450      0.000      0.000 
      79      0.000      0.000      0.000      0.000 
      80      0.000      0.000      0.000      0.000 
      81      0.000      5.124      0.000      0.000 
      82      0.650     -0.250      0.670      0.000 
      83      0.000      0.000      0.000      0.000 
      84      0.000      0.000      0.000      0.000 
      85     -2.500      0.000      0.250      0.000 
      86     -2.500      0.000      0.250      0.000 
      87     -2.500      0.000      0.250      0.000 
      88      0.000      0.000      0.300      0.000 
      89      0.000      0.000      0.000      0.000 
      90     -2.500      0.000      0.250      0.000 
      91      0.000      0.000      0.000      0.000 
      92      0.000      0.000      0.000      0.000 
      93     -2.500      0.000      0.250      0.000 
      94     -2.500      0.000      0.250      0.000 
      95      0.000      0.000      0.540      0.000 
      96      0.000      0.000      0.000      0.000 
      97      0.000      0.000      0.540      0.000 
      98      0.000      0.000      0.000      0.000 
      99     -2.500      0.000      0.250      0.000 
     100     -2.500      0.000      0.250      0.000 
     101      0.000      0.000      0.540      0.000 
     102     -2.500      0.000      0.250      0.000 
     103      0.000      7.250      0.000      0.000 
     104      0.000      0.000      0.540      0.000 
     105     -2.500      0.000      0.250      0.000 
     106     -2.500      0.000      0.250      0.000 
     107      0.000      0.000      0.540      0.000 
     108      0.000      0.000      0.540      0.000 
     109     -2.500      0.000      0.250      0.000 
     110      0.000      0.000      0.000      0.000 
     111      0.000      0.000      0.300      0.000 
     112      0.000      0.000      0.000      0.000 
     113     -2.500      0.000      0.250      0.000 
     114     -2.500      0.000      0.250      0.000 
     115     -2.500      0.000      0.250      0.000 
     116     -2.500      0.000      0.250      0.000 
     117     -2.500      0.000      0.250      0.000 
     118     -2.500      0.000      0.250      0.000 
     119      0.000      0.000      0.540      0.000 
     120     -2.500      0.000      0.250      0.000 
     121     -2.500      0.000      0.250      0.000 
     122      0.000      0.000      0.000      0.000 
     123     -2.500      0.000      0.250      0.000 
     124      0.000      0.000      0.000      0.000 
     125      0.000      0.000      0.000      0.000 
     126     -2.500      0.000      0.250      0.000 
     127     -2.500      0.000      0.250      0.000 
     128     -2.500      0.000      0.250      0.000 
     129      0.000      7.250      0.000      0.000 
     130      1.711     -0.500      0.663      0.000 
     131      0.000      7.250      0.000      0.000 
     132      1.300     -0.200      0.200      0.000 
     133      0.000      0.000      0.000      0.000 
     134     -2.500      0.000      0.250      0.000 
     135     -2.500      0.000      0.250      0.000 
     136      0.000      0.450      0.000      0.000 
     137     -2.500      0.000      0.250      0.000 
     138     -2.500      0.000      0.250      0.000 
     139      0.000      0.000     -0.553      0.000 
     140     -2.500      0.000      0.250      0.000 
     141     -2.500      0.000      0.250      0.000 
     142      0.000      0.000      0.000      0.000 
     143     -2.500      0.000      0.250      0.000 
     144     -2.500      0.000      0.250      0.000 
     145      0.000      0.000      0.540      0.000 
     146      0.000      0.000      0.000      0.000 
     147      0.000      0.000      0.000      0.000 

Improper Coeffs 

       1      0.000      -1       2 
       2      0.000      -1       2 
       3      0.000      -1       2 
       4      0.000      -1       2 
       5      0.000      -1       2 
       6      0.000      -1       2 
       7      0.000      -1       2 
       8      0.000      -1       2 
       9      0.000      -1       2 
      10      0.000      -1       2 
      11      0.000      -1       2 
      12      0.000      -1       2 
      13      0.000      -1       2 
      14      0.000      -1       2 
      15      0.000      -1       2 
      16      0.000      -1       2 
      17      0.000      -1       2 
      18      0.000      -1       2 
      19      0.000      -1       2 
      20      0.000      -1       2 
      21      0.000      -1       2 
      22      0.000      -1       2 
      23      0.000      -1       2 
      24      0.000      -1       2 
      25      0.000      -1       2 
      26      0.000      -1       2 
      27      0.000      -1       2 
      28      0.000      -1       2 
      29      0.000      -1       2 
      30      0.000      -1       2 
      31      0.000      -1       2 
      32      0.000      -1       2 
      33      0.000      -1       2 
      34      0.000      -1       2 
      35      0.000      -1       2 
      36      0.000      -1       2 

Atoms 

     1      1      1 0.34600000    1.000  1.00000  0.00000
     2      1      2 -0.09890000   -0.357  1.00000  0.00000
     3      1      3 -0.09890000    1.401  1.00000 -1.28413
     4      1      4 -0.09890000    1.381 -0.18612  0.53988
     5      1      5 0.13210000    1.543  2.16806  0.81302
     6      1      6 -0.08630000    0.569  3.10048  1.02658
     7      1      7 -0.08630000    1.916  1.74820  2.05857
     8      1      8 0.15330000    2.707  2.79387  0.09550
     9      1      9 -0.06880000    3.653  1.86112 -0.14653
    10      1     10 -0.06880000    2.298  3.26909 -1.11645
    11      1     11 0.15380000    3.292  3.94988  0.88020
    12      1     12 -0.08540000    2.300  4.84683  1.17030
    13      1     13 -0.08540000    3.767  3.53375  2.08510
    14      1     14 0.15620000    4.384  4.71453  0.11772
    15      1     15 -0.08030000    3.894  5.12562 -1.07957
    16      1     16 -0.08030000    4.649  5.86362  0.80933
    17      1     17 0.16520000    5.699  3.96017 -0.06707
    18      1     18 -0.08040000    6.128  3.55716  1.16862
    19      1     19 -0.08040000    5.540  2.81992 -0.77304
    20      1     20 0.16170000    6.804  4.78404 -0.71297
    21      1     21 -0.08830000    6.989  5.92730  0.01777
    22      1     22 -0.08830000    7.991  4.11397 -0.58260
    23      1     23 0.18820000    6.623  5.16111 -2.18239
    24      1     24 -0.08510000    5.584  6.05028 -2.26806
    25      1     25 -0.08510000    7.705  5.90455 -2.56957
    26      1     26 0.19910000    6.397  4.05168 -3.25291
    27      1     27 -0.08510000    6.278  4.74742 -4.41719
    28      1     28 0.16690000    7.591  3.02567 -3.31217
    29      1     29 -0.09030000    7.734  2.49805 -2.06108
    30      1     30 -0.09030000    7.295  1.93148 -4.07394
    31      1     31 0.15430000    8.950  3.49798 -3.83104
    32      1     32 -0.09910000    9.435  4.51848 -3.08383
    33      1     33 -0.09910000    9.839  2.46469 -3.64790
    34      1     34 0.16490000    8.967  3.83824 -5.31868
    35      1     35 -0.12240000    8.207  4.92364 -5.59447
    36      1     36 -0.12240000   10.227  4.16542 -5.71757
    37      1     37 -0.36330000    5.073  3.53300 -3.06831
    38      1     38 0.37460000    4.551  2.45667 -3.84985
    39      1     39 -0.07800000    5.336  1.38006 -3.61192
    40      1     40 -0.07800000    3.400  2.14963 -3.16867
    41      1     41 0.18410000    4.158  2.56584 -5.36969
    42      1     42 -0.07080000    3.124  3.46164 -5.44529
    43      1     43 0.35320000    5.311  3.06650 -6.24711
    44      1     44 -0.13100000    6.496  3.04972 -5.62006
    45      1     45 -0.13100000    5.569  2.33590 -7.34984
    46      1     46 -0.13100000    5.107  4.34080 -6.65764
    47      1     47 -0.30460000    3.668  1.28700 -5.80052
    48      1     48 0.32840000    2.892  1.27547 -7.00207
    49      1     49 -0.12690000    1.897  2.17668 -6.90202
    50      1     50 -0.12690000    3.689  1.78547 -7.99144
    51      1     51 -0.17210000    2.470 -0.11356 -7.46386
    52      1     52 -0.10730000    2.027 -0.04347 -8.76647
    53      1     53 -0.10730000    3.588 -0.92395 -7.52161
    54      1     54 1.27870000    1.216 -0.71806 -6.32371
    55      1     55 -0.57650000    0.129  0.26174 -6.38633
    56      1     56 -0.57650000    0.848 -2.02959 -6.83769
    57      1     57 -0.57650000    1.889 -0.76367 -5.02193
    58      1     58 0.15160000    8.647  2.99880 -5.94491

Bonds 

     1      1      2      1
     2      2      3      1
     3      3      4      1
     4      4      5      1
     5      5      6      5
     6      6      7      5
     7      7      8      5
     8      8      9      8
     9      9     10      8
    10     10     11      8
    11     11     12     11
    12     12     13     11
    13     13     14     11
    14     14     15     14
    15     15     16     14
    16     16     17     14
    17     17     18     17
    18     18     19     17
    19     19     20     17
    20     20     21     20
    21     21     22     20
    22     22     23     20
    23     23     24     23
    24     24     25     23
    25     25     26     23
    26     26     27     26
    27     27     28     26
    28     28     29     28
    29     29     30     28
    30     30     31     28
    31     31     32     31
    32     32     33     31
    33     33     34     31
    34     34     35     34
    35     35     36     34
    36     36     37     26
    37     37     38     37
    38     38     39     38
    39     39     40     38
    40     40     41     38
    41     41     42     41
    42     42     43     41
    43     43     44     43
    44     44     45     43
    45     45     46     43
    46     46     47     41
    47     47     48     47
    48     48     49     48
    49     49     50     48
    50     50     51     48
    51     51     52     51
    52     52     53     51
    53     53     54     51
    54     54     55     54
    55     55     56     54
    56     56     57     54
    57     57     58     34

Angles 

     1      1      2      1      3
     2      2      2      1      4
     3      3      2      1      5
     4      4      1      5      6
     5      5      1      5      7
     6      6      1      5      8
     7      7      5      8      9
     8      8      5      8     10
     9      9      5      8     11
    10     10      8     11     12
    11     11      8     11     13
    12     12      8     11     14
    13     13     11     14     15
    14     14     11     14     16
    15     15     11     14     17
    16     16     14     17     18
    17     17     14     17     19
    18     18     14     17     20
    19     19     17     20     21
    20     20     17     20     22
    21     21     17     20     23
    22     22     20     23     24
    23     23     20     23     25
    24     24     20     23     26
    25     25     23     26     27
    26     26     23     26     28
    27     27     26     28     29
    28     28     26     28     30
    29     29     26     28     31
    30     30     28     31     32
    31     31     28     31     33
    32     32     28     31     34
    33     33     31     34     35
    34     34     31     34     36
    35     35     23     26     37
    36     36     26     37     38
    37     37     37     38     39
    38     38     37     38     40
    39     39     37     38     41
    40     40     38     41     42
    41     41     38     41     43
    42     42     41     43     44
    43     43     41     43     45
    44     44     41     43     46
    45     45     38     41     47
    46     46     41     47     48
    47     47     47     48     49
    48     48     47     48     50
    49     49     47     48     51
    50     50     48     51     52
    51     51     48     51     53
    52     52     48     51     54
    53     53     51     54     55
    54     54     51     54     56
    55     55     51     54     57
    56     56     31     34     58
    57     57     50     48     51
    58     58     18     17     20
    59     59     29     28     30
    60     60      3      1      4
    61     61      4      1      5
    62     62     32     31     34
    63     63     53     51     54
    64     64     12     11     14
    65     65     35     34     36
    66     66     56     54     57
    67     67     25     23     26
    68     68     10      8     11
    69     69     21     20     22
    70     70     44     43     46
    71     71     32     31     33
    72     72     52     51     53
    73     73     40     38     41
    74     74     45     43     46
    75     75      6      5      7
    76     76      9      8     11
    77     77      7      5      8
    78     78     13     11     14
    79     79     15     14     17
    80     80     39     38     40
    81     81     44     43     45
    82     82      9      8     10
    83     83     24     23     25
    84     84      3      1      5
    85     85     52     51     54
    86     86     35     34     58
    87     87     36     34     58
    88     88     42     41     47
    89     89     27     26     37
    90     90     49     48     50
    91     91     21     20     23
    92     92     30     28     31
    93     93     43     41     47
    94     94     42     41     43
    95     95     55     54     56
    96     96     15     14     16
    97     97     19     17     20
    98     98     28     26     37
    99     99     27     26     28
   100    100     49     48     51
   101    101     16     14     17
   102    102     24     23     26
   103    103     29     28     31
   104    104     18     17     19
   105    105     55     54     57
   106    106     22     20     23
   107    107      6      5      8
   108    108     39     38     41
   109    109     12     11     13
   110    110     33     31     34

Dihedrals

     1      1      6      5      1      2 
     2      2      9      8      5      1 
     3      3     12     11      8      5 
     4      4     15     14     11      8 
     5      5     18     17     14     11 
     6      6     21     20     17     14 
     7      7     24     23     20     17 
     8      8     27     26     23     20 
     9      9     29     28     26     23 
    10     10     32     31     28     26 
    11     11     35     34     31     28 
    12     12     38     37     26     23 
    13     13     39     38     37     26 
    14     14     42     41     38     37 
    15     15     44     43     41     38 
    16     16     48     47     41     38 
    17     17     49     48     47     41 
    18     18     52     51     48     47 
    19     19     55     54     51     48 
    20     20     31     28     26     27 
    21     21      8      5      1      3 
    22     22     36     34     31     28 
    23     23      7      5      1      4 
    24     24     37     26     23     20 
    25     25     15     14     11     12 
    26     26     16     14     11      8 
    27     27     32     31     28     30 
    28     28     33     31     28     29 
    29     29     17     14     11      8 
    30     30     30     28     26     23 
    31     31     38     37     26     28 
    32     32     47     41     38     37 
    33     33      8      5      1      4 
    34     34     17     14     11     13 
    35     35     13     11      8      9 
    36     36     12     11      8     10 
    37     37     25     23     20     17 
    38     38     13     11      8      5 
    39     39     51     48     47     41 
    40     40      7      5      1      3 
    41     41      8      5      1      2 
    42     42     37     26     28     29 
    43     43     16     14     11     12 
    44     44     48     47     41     43 
    45     45     52     51     48     49 
    46     46     54     51     48     47 
    47     47     58     34     31     33 
    48     48     26     23     20     22 
    49     49     55     54     51     52 
    50     50     19     17     14     11 
    51     51     11      8      5      6 
    52     52     46     43     41     38 
    53     53     28     26     23     25 
    54     54     34     31     28     26 
    55     55     56     54     51     53 
    56     56     57     54     51     52 
    57     57      7      5      1      2 
    58     58      6      5      1      3 
    59     59     22     20     17     14 
    60     60     28     26     23     24 
    61     61     50     48     47     41 
    62     62     48     47     41     42 
    63     63     37     26     28     30 
    64     64     21     20     17     18 
    65     65     38     37     26     27 
    66     66     22     20     17     19 
    67     67     23     20     17     18 
    68     68     53     51     48     50 