LAMMPS data file Created by LigParGen - (Written by Leela S. Dodda)

      25 atoms
      24 bonds
      44 angles
      48 dihedrals
      14 impropers
 
      25 atom types
      24 bond types
      44 angle types
      48 dihedral types
      14 improper types
 
   -0.357530    49.642470 xlo xhi
    0.095090    50.095090 ylo yhi
   -1.302240    48.697760 zlo zhi

Masses

       1     12.011  
       2     18.998  
       3     18.998  
       4     15.999  
       5     12.011  
       6     18.998  
       7     18.998  
       8     12.011  
       9     18.998  
      10     12.011  
      11     18.998  
      12     18.998  
      13     18.998  
      14     15.999  
      15     12.011  
      16     18.998  
      17     18.998  
      18     12.011  
      19     18.998  
      20     18.998  
      21     32.060  
      22     15.999  
      23     15.999  
      24     15.999  
      25      1.008  

Pair Coeffs 

       1      0.066  3.5000000 
       2      0.060  2.9000000 
       3      0.060  2.9000000 
       4      0.140  2.9000000 
       5      0.066  3.5000000 
       6      0.060  2.9000000 
       7      0.060  2.9000000 
       8      0.066  3.5000000 
       9      0.060  2.9000000 
      10      0.066  3.5000000 
      11      0.060  2.9000000 
      12      0.060  2.9000000 
      13      0.060  2.9000000 
      14      0.140  2.9000000 
      15      0.066  3.5000000 
      16      0.060  2.9000000 
      17      0.060  2.9000000 
      18      0.066  3.5000000 
      19      0.060  2.9000000 
      20      0.060  2.9000000 
      21      0.250  3.5500000 
      22      0.170  2.9600000 
      23      0.170  2.9600000 
      24      0.170  2.9600000 
      25      0.030  2.5000000 

Bond Coeffs 

       1   367.0000     1.3600 
       2   367.0000     1.3600 
       3   320.0000     1.4100 
       4   320.0000     1.4100 
       5   367.0000     1.3600 
       6   367.0000     1.3600 
       7   268.0000     1.5290 
       8   367.0000     1.3600 
       9   268.0000     1.5290 
      10   367.0000     1.3600 
      11   367.0000     1.3600 
      12   367.0000     1.3600 
      13   320.0000     1.4100 
      14   320.0000     1.4100 
      15   367.0000     1.3600 
      16   367.0000     1.3600 
      17   268.0000     1.5290 
      18   367.0000     1.3600 
      19   367.0000     1.3600 
      20   340.0000     1.7700 
      21   700.0000     1.4400 
      22   700.0000     1.4400 
      23   700.0000     1.4400 
      24   340.0000     1.0900 

Angle Coeffs 

       1     77.000    109.100
       2     70.000    109.900
       3     60.000    109.500
       4     70.000    109.900
       5     70.000    109.900
       6     50.000    109.500
       7     50.000    109.500
       8     58.350    112.700
       9     50.000    109.500
      10     50.000    109.500
      11     50.000    109.500
      12     50.000    109.500
      13     60.000    109.500
      14     70.000    109.900
      15     70.000    109.900
      16     50.000    109.500
      17     50.000    109.500
      18     50.000    109.500
      19     50.000    114.700
      20     74.000    108.900
      21     74.000    108.900
      22     74.000    108.900
      23     40.000    107.000
      24     50.000    109.500
      25     77.000    109.100
      26    104.000    119.000
      27     77.000    109.100
      28     70.000    109.900
      29     77.000    109.100
      30     50.000    109.500
      31     77.000    109.100
      32     40.000    107.000
      33     77.000    109.100
      34    104.000    119.000
      35     50.000    109.500
      36     51.650    110.580
      37     50.000    109.500
      38     50.000    109.500
      39     77.000    109.100
      40     50.000    109.500
      41    104.000    119.000
      42     50.000    109.500
      43     35.000    109.500
      44     50.000    109.500

Dihedral Coeffs  

       1      0.000      5.124      0.000      0.000 
       2      0.000      5.124      0.000      0.000 
       3      0.000      0.000      0.540      0.000 
       4      0.000      0.000      0.000      0.000 
       5      0.650     -0.250      0.670      0.000 
       6      0.000      5.124      0.000      0.000 
       7      0.000      0.000      0.540      0.000 
       8      0.000      0.000      0.000      0.000 
       9      0.000      0.000      0.540      0.000 
      10      0.650     -0.250      0.670      0.000 
      11      0.000      0.000      0.000      0.000 
      12      0.000      0.000      0.000      0.000 
      13     -2.500      0.000      0.250      0.000 
      14      0.000      0.000      0.000      0.000 
      15      0.000      5.124      0.000      0.000 
      16      0.000      0.000      0.000      0.000 
      17      0.000      0.000      0.000      0.000 
      18      0.000      5.124      0.000      0.000 
      19      0.650     -0.250      0.670      0.000 
      20      0.000      0.000      0.000      0.000 
      21      0.000      0.000      0.540      0.000 
      22      0.000      0.000      0.000      0.000 
      23      0.650     -0.250      0.670      0.000 
      24      0.000      2.170      0.000      0.000 
      25     -2.500      0.000      0.250      0.000 
      26      0.000      0.000      0.000      0.000 
      27      0.000      0.000      0.540      0.000 
      28      0.000      0.000     -0.553      0.000 
      29     -2.500      0.000      0.250      0.000 
      30      0.000      0.000      0.760      0.000 
      31     -2.500      0.000      0.250      0.000 
      32     -2.500      0.000      0.250      0.000 
      33      0.000      5.124      0.000      0.000 
      34     -2.500      0.000      0.250      0.000 
      35     -2.500      0.000      0.250      0.000 
      36      0.000      0.000      0.000      0.000 
      37     -2.500      0.000      0.250      0.000 
      38      0.000      0.000      0.540      0.000 
      39      0.000      0.000      0.540      0.000 
      40      0.000      0.000      0.540      0.000 
      41      0.000      0.000      0.000      0.000 
      42      0.000      0.000      0.760      0.000 
      43      0.000      0.450      0.000      0.000 
      44      0.000      0.000      0.000      0.000 
      45     -0.550      0.000      0.000      0.000 
      46      0.000      0.450      0.000      0.000 
      47     -2.500      0.000      0.250      0.000 
      48      0.000      0.000      0.000      0.000 

Improper Coeffs 

       1      0.000      -1       2 
       2      0.000      -1       2 
       3      0.000      -1       2 
       4      0.000      -1       2 
       5      0.000      -1       2 
       6      0.000      -1       2 
       7      0.000      -1       2 
       8      0.000      -1       2 
       9      0.000      -1       2 
      10      0.000      -1       2 
      11      0.000      -1       2 
      12      0.000      -1       2 
      13      0.000      -1       2 
      14      0.000      -1       2 

Atoms 

     1      1      1 0.33090000    1.000  1.00000  0.00000
     2      1      2 -0.14240000   -0.358  1.00000  0.00000
     3      1      3 -0.14240000    1.371  1.00000 -1.30224
     4      1      4 -0.36470000    1.407  2.21374  0.58017
     5      1      5 0.35970000    2.798  2.15314  0.82568
     6      1      6 -0.11080000    3.009  1.09224  1.64593
     7      1      7 -0.11080000    3.425  1.84420 -0.34124
     8      1      8 0.21490000    3.391  3.44170  1.41824
     9      1      9 -0.04800000    4.739  3.26233  1.50032
    10      1     10 0.34140000    3.067  4.55963  0.41591
    11      1     11 -0.12080000    2.856  4.12729 -0.84931
    12      1     12 -0.12080000    1.959  5.25997  0.76474
    13      1     13 -0.12080000    4.085  5.45527  0.34189
    14      1     14 -0.31080000    2.880  3.62770  2.74582
    15      1     15 0.33100000    3.447  4.68552  3.50293
    16      1     16 -0.12350000    3.199  5.82011  2.77251
    17      1     17 -0.12350000    2.618  4.82315  4.57901
    18      1     18 -0.19890000    4.917  4.70815  3.92946
    19      1     19 -0.11080000    5.716  4.84204  2.81647
    20      1     20 -0.11080000    5.152  5.86783  4.64360
    21      1     21 1.27290000    5.260  3.21770  4.88950
    22      1     22 -0.57770000    4.505  3.37489  6.13331
    23      1     23 -0.57770000    4.806  2.10418  4.05377
    24      1     24 -0.57770000    6.718  3.23617  5.08726
    25      1     25 0.14220000    1.352  0.09509  0.50630

Bonds 

     1      1      2      1
     2      2      3      1
     3      3      4      1
     4      4      5      4
     5      5      6      5
     6      6      7      5
     7      7      8      5
     8      8      9      8
     9      9     10      8
    10     10     11     10
    11     11     12     10
    12     12     13     10
    13     13     14      8
    14     14     15     14
    15     15     16     15
    16     16     17     15
    17     17     18     15
    18     18     19     18
    19     19     20     18
    20     20     21     18
    21     21     22     21
    22     22     23     21
    23     23     24     21
    24     24     25      1

Angles 

     1      1      2      1      3
     2      2      2      1      4
     3      3      1      4      5
     4      4      4      5      6
     5      5      4      5      7
     6      6      4      5      8
     7      7      5      8      9
     8      8      5      8     10
     9      9      8     10     11
    10     10      8     10     12
    11     11      8     10     13
    12     12      5      8     14
    13     13      8     14     15
    14     14     14     15     16
    15     15     14     15     17
    16     16     14     15     18
    17     17     15     18     19
    18     18     15     18     20
    19     19     15     18     21
    20     20     18     21     22
    21     21     18     21     23
    22     22     18     21     24
    23     23      2      1     25
    24     24     20     18     21
    25     25     11     10     12
    26     26     22     21     23
    27     27     19     18     20
    28     28      3      1      4
    29     29     12     10     13
    30     30      9      8     10
    31     31     11     10     13
    32     32      3      1     25
    33     33      6      5      7
    34     34     23     21     24
    35     35      6      5      8
    36     36      9      8     14
    37     37      7      5      8
    38     38     10      8     14
    39     39     16     15     17
    40     40     19     18     21
    41     41     22     21     24
    42     42     16     15     18
    43     43      4      1     25
    44     44     17     15     18

Dihedrals

     1      1      5      4      1      2 
     2      2      6      5      4      1 
     3      3      9      8      5      4 
     4      4     11     10      8      5 
     5      5     15     14      8      5 
     6      6     16     15     14      8 
     7      7     19     18     15     14 
     8      8     22     21     18     15 
     9      9     14      8     10     11 
    10     10      8      5      4      1 
    11     11     10      8      5      6 
    12     12     13     10      8      5 
    13     13      9      8      5      7 
    14     14     24     21     18     20 
    15     15      5      4      1      3 
    16     16     23     21     18     20 
    17     17     12     10      8      5 
    18     18     17     15     14      8 
    19     19     18     15     14      8 
    20     20     23     21     18     19 
    21     21     14      8     10     13 
    22     22     22     21     18     20 
    23     23     15     14      8     10 
    24     24     21     18     15     14 
    25     25      9      8      5      6 
    26     26     23     21     18     15 
    27     27     20     18     15     14 
    28     28     10      8      5      4 
    29     29     11     10      8      9 
    30     30     15     14      8      9 
    31     31     20     18     15     17 
    32     32     12     10      8      9 
    33     33      7      5      4      1 
    34     34     20     18     15     16 
    35     35     19     18     15     17 
    36     36     24     21     18     15 
    37     37     13     10      8      9 
    38     38     14      8     10     12 
    39     39     14      8      5      6 
    40     40     14      8      5      7 
    41     41     22     21     18     19 
    42     42     25      1      4      5 
    43     43     21     18     15     17 
    44     44     10      8      5      7 
    45     45     14      8      5      4 
    46     46     21     18     15     16 
    47     47     19     18     15     16 
    48     48     24     21     18     19 

Impropers

     1      1      1      2      3      4 
     2      2      5      4      6      7 
     3      3      5      4      6      8 
     4      4      8      9     10      5 
     5      5     10     11     12      8 
     6      6     10     11     13      8 
     7      7      8      9      5     14 
     8      8     15     17     14     16 
     9      9     15     18     14     16 
    10     10     18     19     20     15 
    11     11     18     19     21     15 
    12     12     21     18     22     23 
    13     13     21     18     22     24 
    14     14      1     25      3      2 

