LAMMPS data file Created by LigParGen - (Written by Leela S. Dodda)

      25 atoms
      24 bonds
      44 angles
      48 dihedrals
      14 impropers
 
      25 atom types
      24 bond types
      44 angle types
      48 dihedral types
      14 improper types
 
   -0.359120    49.640880 xlo xhi
   -1.322080    48.677920 ylo yhi
   -6.448490    43.551510 zlo zhi

Masses

       1     12.011  
       2     18.998  
       3     15.999  
       4     12.011  
       5     18.998  
       6     18.998  
       7     12.011  
       8     18.998  
       9     12.011  
      10     18.998  
      11     18.998  
      12     18.998  
      13     15.999  
      14     12.011  
      15     18.998  
      16     18.998  
      17     12.011  
      18     18.998  
      19     18.998  
      20     32.060  
      21     15.999  
      22     15.999  
      23     15.999  
      24      1.008  
      25      1.008  

Pair Coeffs 

       1      0.066  3.5000000 
       2      0.060  2.9000000 
       3      0.140  2.9000000 
       4      0.066  3.5000000 
       5      0.060  2.9000000 
       6      0.060  2.9000000 
       7      0.066  3.5000000 
       8      0.060  2.9000000 
       9      0.066  3.5000000 
      10      0.060  2.9000000 
      11      0.060  2.9000000 
      12      0.060  2.9000000 
      13      0.140  2.9000000 
      14      0.066  3.5000000 
      15      0.060  2.9000000 
      16      0.060  2.9000000 
      17      0.066  3.5000000 
      18      0.060  2.9000000 
      19      0.060  2.9000000 
      20      0.250  3.5500000 
      21      0.170  2.9600000 
      22      0.170  2.9600000 
      23      0.170  2.9600000 
      24      0.030  2.5000000 
      25      0.030  2.5000000 

Bond Coeffs 

       1   367.0000     1.3600 
       2   320.0000     1.4100 
       3   320.0000     1.4100 
       4   367.0000     1.3600 
       5   367.0000     1.3600 
       6   268.0000     1.5290 
       7   367.0000     1.3600 
       8   268.0000     1.5290 
       9   367.0000     1.3600 
      10   367.0000     1.3600 
      11   367.0000     1.3600 
      12   320.0000     1.4100 
      13   320.0000     1.4100 
      14   367.0000     1.3600 
      15   367.0000     1.3600 
      16   268.0000     1.5290 
      17   367.0000     1.3600 
      18   367.0000     1.3600 
      19   340.0000     1.7700 
      20   700.0000     1.4400 
      21   700.0000     1.4400 
      22   700.0000     1.4400 
      23   340.0000     1.0900 
      24   340.0000     1.0900 

Angle Coeffs 

       1     51.650    110.580
       2     60.000    109.500
       3     70.000    109.900
       4     70.000    109.900
       5     50.000    109.500
       6     50.000    109.500
       7     58.350    112.700
       8     50.000    109.500
       9     50.000    109.500
      10     50.000    109.500
      11     50.000    109.500
      12     60.000    109.500
      13     70.000    109.900
      14     70.000    109.900
      15     50.000    109.500
      16     50.000    109.500
      17     50.000    109.500
      18     50.000    114.700
      19     74.000    108.900
      20     74.000    108.900
      21     74.000    108.900
      22     40.000    107.000
      23     40.000    107.000
      24     35.000    109.500
      25     77.000    109.100
      26     77.000    109.100
      27    104.000    119.000
      28     50.000    109.500
      29     77.000    109.100
      30     50.000    109.500
      31     50.000    109.500
      32     50.000    109.500
      33     50.000    109.500
      34     51.650    110.580
      35    104.000    119.000
      36     50.000    109.500
      37     77.000    109.100
      38     35.000    109.500
      39    104.000    119.000
      40     77.000    109.100
      41     77.000    109.100
      42     50.000    109.500
      43     50.000    109.500
      44     33.000    107.800

Dihedral Coeffs  

       1      0.000      0.000      0.760      0.000 
       2      0.000      5.124      0.000      0.000 
       3      0.000      0.000      0.540      0.000 
       4      0.000      0.000      0.000      0.000 
       5      0.650     -0.250      0.670      0.000 
       6      0.000      5.124      0.000      0.000 
       7      0.000      0.000      0.540      0.000 
       8      0.000      0.000      0.000      0.000 
       9      0.000      0.000      0.760      0.000 
      10      0.000      0.000      0.000      0.000 
      11      0.000      5.124      0.000      0.000 
      12      0.000      0.000      0.000      0.000 
      13      0.000      0.000      0.000      0.000 
      14      0.000      0.000      0.000      0.000 
      15      0.000      0.000      0.000      0.000 
      16      0.000      0.000      0.000      0.000 
      17      0.000      0.000      0.000      0.000 
      18      0.650     -0.250      0.670      0.000 
      19      0.000      0.000      0.760      0.000 
      20      0.650     -0.250      0.670      0.000 
      21      0.000      0.000     -0.553      0.000 
      22     -2.500      0.000      0.250      0.000 
      23      0.000      0.000      0.540      0.000 
      24     -2.500      0.000      0.250      0.000 
      25     -2.500      0.000      0.250      0.000 
      26     -2.500      0.000      0.250      0.000 
      27     -2.500      0.000      0.250      0.000 
      28      0.000      0.000      0.000      0.000 
      29      0.000      0.000      0.540      0.000 
      30      0.000      0.000      0.000      0.000 
      31      0.000      0.450      0.000      0.000 
      32      0.000      2.170      0.000      0.000 
      33      0.000      0.000      0.540      0.000 
      34     -2.500      0.000      0.250      0.000 
      35      0.000      5.124      0.000      0.000 
      36      0.000      0.000      0.540      0.000 
      37      0.000      0.000      0.760      0.000 
      38     -2.500      0.000      0.250      0.000 
      39     -2.500      0.000      0.250      0.000 
      40      0.000      0.000      0.000      0.000 
      41      0.000      0.000      0.000      0.000 
      42      0.000      0.000      0.540      0.000 
      43      0.000      0.000      0.540      0.000 
      44      0.650     -0.250      0.670      0.000 
      45     -2.500      0.000      0.250      0.000 
      46      0.000      0.450      0.000      0.000 
      47      0.000      0.000      0.000      0.000 
      48     -0.550      0.000      0.000      0.000 

Improper Coeffs 

       1      0.000      -1       2 
       2      0.000      -1       2 
       3      0.000      -1       2 
       4      0.000      -1       2 
       5      0.000      -1       2 
       6      0.000      -1       2 
       7      0.000      -1       2 
       8      0.000      -1       2 
       9      0.000      -1       2 
      10      0.000      -1       2 
      11      0.000      -1       2 
      12      0.000      -1       2 
      13      0.000      -1       2 
      14      0.000      -1       2 

Atoms 

     1      1      1 0.15090000    1.000  1.00000  0.00000
     2      1      2 -0.13400000   -0.359  1.00000  0.00000
     3      1      3 -0.36060000    1.399  1.00000 -1.35597
     4      1      4 0.36550000    2.817  1.00169 -1.42754
     5      1      5 -0.12010000    3.247  2.11350 -0.77893
     6      1      6 -0.12010000    3.264 -0.04880 -0.68305
     7      1      7 0.21730000    3.384  0.92731 -2.85437
     8      1      8 -0.05150000    4.740  0.83591 -2.74573
     9      1      9 0.34180000    2.818 -0.36338 -3.46430
    10      1     10 -0.12280000    2.520 -1.32208 -2.55463
    11      1     11 -0.12280000    1.684 -0.14689 -4.17466
    12      1     12 -0.12280000    3.712 -0.92968 -4.31766
    13      1     13 -0.30850000    3.072  2.14005 -3.55218
    14      1     14 0.33320000    3.630  2.29602 -4.84675
    15      1     15 -0.12460000    3.180  1.21647 -5.56357
    16      1     16 -0.12460000    2.941  3.33828 -5.39741
    17      1     17 -0.20070000    5.135  2.43115 -5.09065
    18      1     18 -0.11200000    5.762  1.24880 -4.77060
    19      1     19 -0.11200000    5.353  2.56386 -6.44849
    20      1     20 1.27770000    5.754  3.84093 -4.14268
    21      1     21 -0.57850000    5.156  5.01999 -4.77462
    22      1     22 -0.57850000    5.306  3.61557 -2.76819
    23      1     23 -0.57850000    7.207  3.77844 -4.29584
    24      1     24 0.09300000    1.328  0.09109  0.51402
    25      1     25 0.09300000    1.337  1.89374  0.53310

Bonds 

     1      1      2      1
     2      2      3      1
     3      3      4      3
     4      4      5      4
     5      5      6      4
     6      6      7      4
     7      7      8      7
     8      8      9      7
     9      9     10      9
    10     10     11      9
    11     11     12      9
    12     12     13      7
    13     13     14     13
    14     14     15     14
    15     15     16     14
    16     16     17     14
    17     17     18     17
    18     18     19     17
    19     19     20     17
    20     20     21     20
    21     21     22     20
    22     22     23     20
    23     23     24      1
    24     24     25      1

Angles 

     1      1      2      1      3
     2      2      1      3      4
     3      3      3      4      5
     4      4      3      4      6
     5      5      3      4      7
     6      6      4      7      8
     7      7      4      7      9
     8      8      7      9     10
     9      9      7      9     11
    10     10      7      9     12
    11     11      4      7     13
    12     12      7     13     14
    13     13     13     14     15
    14     14     13     14     16
    15     15     13     14     17
    16     16     14     17     18
    17     17     14     17     19
    18     18     14     17     20
    19     19     17     20     21
    20     20     17     20     22
    21     21     17     20     23
    22     22      2      1     24
    23     23      2      1     25
    24     24      3      1     24
    25     25      5      4      6
    26     26     15     14     16
    27     27     21     20     22
    28     28      9      7     13
    29     29     10      9     12
    30     30      6      4      7
    31     31     15     14     17
    32     32      8      7      9
    33     33     18     17     20
    34     34      8      7     13
    35     35     21     20     23
    36     36     16     14     17
    37     37     18     17     19
    38     38      3      1     25
    39     39     22     20     23
    40     40     11      9     12
    41     41     10      9     11
    42     42     19     17     20
    43     43      5      4      7
    44     44     24      1     25

Dihedrals

     1      1      4      3      1      2 
     2      2      5      4      3      1 
     3      3      8      7      4      3 
     4      4     10      9      7      4 
     5      5     14     13      7      4 
     6      6     15     14     13      7 
     7      7     18     17     14     13 
     8      8     21     20     17     14 
     9      9     14     13      7      8 
    10     10     22     20     17     14 
    11     11     16     14     13      7 
    12     12     22     20     17     18 
    13     13     21     20     17     19 
    14     14     21     20     17     18 
    15     15     23     20     17     14 
    16     16     22     20     17     19 
    17     17     23     20     17     19 
    18     18      7      4      3      1 
    19     19     24      1      3      4 
    20     20     14     13      7      9 
    21     21      9      7      4      3 
    22     22     12      9      7      8 
    23     23     19     17     14     13 
    24     24     19     17     14     16 
    25     25     18     17     14     15 
    26     26      8      7      4      6 
    27     27     11      9      7      8 
    28     28      9      7      4      5 
    29     29     13      7      9     10 
    30     30     11      9      7      4 
    31     31     20     17     14     16 
    32     32     20     17     14     13 
    33     33     13      7      4      6 
    34     34     18     17     14     16 
    35     35      6      4      3      1 
    36     36     13      7      4      5 
    37     37     25      1      3      4 
    38     38      8      7      4      5 
    39     39     19     17     14     15 
    40     40     23     20     17     18 
    41     41      9      7      4      6 
    42     42     13      7      9     12 
    43     43     13      7      9     11 
    44     44     17     14     13      7 
    45     45     10      9      7      8 
    46     46     20     17     14     15 
    47     47     12      9      7      4 
    48     48     13      7      4      3 

Impropers

     1      1      4      3      5      6 
     2      2      4      3      5      7 
     3      3      7      9      4      8 
     4      4      9     10     11      7 
     5      5      9     10     12      7 
     6      6      7      4     13      8 
     7      7     14     13     15     16 
     8      8     14     17     13     15 
     9      9     17     18     19     14 
    10     10     17     18     20     14 
    11     11     20     17     21     22 
    12     12     20     17     21     23 
    13     13      1      2      3     24 
    14     14      1     25      3      2 

