LAMMPS output created by EMC v9.4.4, build Jul 30 2020 09:28:04

        7364  atoms
        6517  bonds
       10290  angles
       13587  dihedrals

           8  atom types
           7  bond types
          12  angle types
          14  dihedral types

             0    41.91517271  xlo xhi
             0    41.91517271  ylo yhi
             0    41.91517271  zlo zhi

Masses

       1   20.00000  # C
       2   20.00000  # F
       3   20.00000  # GFOc
       4   20.00000  # GGS
       5   20.00000  # GOs
       6   20.00000  # Na
       7   20.00000  # WH
       8   20.00000  # WO

Atoms

       1   1  17.9866947023  18.7438861964  24.0301186210       1  0.3275  # C
       2   2  17.5148307772  18.8922284596  24.7739139499       1 -0.1576  # F
       3   2  17.1828177011  19.4788542517  23.9629325407       1 -0.1576  # F
       4   1  18.9816547447  19.0929465667  23.7750075193       1  0.3275  # C
       5   2  20.0283338105  19.5046112638  24.6387651725       1 -0.1576  # F
       6   2  19.1241359454  18.5873775160  24.7356342436       1 -0.1576  # F
       7   1  18.6393263838  19.4232304078  22.8618508924       1  0.3275  # C
       8   2  18.3044634619  18.4419688232  22.6093659334       1 -0.1576  # F
       9   2  19.6055073053  19.4184483697  22.4160056633       1 -0.1576  # F
      10   1  18.4708870740  20.3720959223  22.5656565204       1  0.3275  # C
      11   2  18.6515247562  21.2895917086  23.3501120426       1 -0.1576  # F
      12   2  18.9829699644  20.5560649293  21.6962759156       1 -0.1576  # F
      13   1  17.4497233369  20.7331474376  21.9700917797       1  0.3275  # C
      14   2  18.1588240701  20.4227739137  21.0619807271       1 -0.1576  # F
      15   2  17.1780502430  19.8707867312  22.5832574139       1 -0.1576  # F
      16   1  16.9867441402  21.6617756231  21.7998218355       1  0.3275  # C
      17   2  17.4859822755  22.8079545025  21.7632686228       1 -0.1576  # F
      18   2  16.2912082609  21.1557337741  22.4618202396       1 -0.1576  # F
      19   1  16.5814558967  21.8145911055  21.0183811983       1  0.3275  # C
      20   2  16.7235095872  21.1590786214  19.8858447622       1 -0.1576  # F
      21   2  16.4901133186  22.6660506336  21.4909775551       1 -0.1576  # F
      22   1  17.1651925299  22.2935237831  20.4188647239       1  0.3275  # C
      23   2  17.8153487117  22.8723734831  19.9175689138       1 -0.1576  # F
      24   2  18.1782565080  21.7946730803  20.8206016248       1 -0.1576  # F
      25   1  16.6472982914  21.6896868163  19.2309800609       1  0.3275  # C
      26   2  15.5803908454  22.0523120189  18.4314002069       1 -0.1576  # F
      27   2  17.4683295203  21.3583046441  19.7293889888       1 -0.1576  # F
      28   1  16.0800438781  20.7636773261  19.7952629846       1  0.3275  # C
      29   2  15.4182162932  20.1745722763  19.2407544581       1 -0.1576  # F
      30   2  16.6090410983  20.3103988182  20.4415758090       1 -0.1576  # F
      31   1  15.2396523998  21.1969155552  20.3377175239       1  0.3275  # C
      32   2  14.8986867752  22.4967399920  19.7543110513       1 -0.1576  # F
      33   2  14.7704403746  20.5768656747  19.7616389522       1 -0.1576  # F
      34   1  14.8220818472  21.1115550036  22.0666882002       1  0.3275  # C
      35   2  14.1227527995  21.5918948568  21.9499462521       1 -0.1576  # F
      36   2  15.3043228525  20.4557514920  22.7446065120       1 -0.1576  # F
      37   1  14.5059753942  20.5286599369  22.9165144387       1  0.3275  # C
      38   2  13.6231769623  21.0453159028  22.8885587377       1 -0.1576  # F
      39   2  14.5714708181  19.4739633449  22.4375815337       1 -0.1576  # F
      40   1  14.7690567748  20.6286734574  24.1456618040       1  0.3275  # C
      41   2  15.4609775741  20.0137832677  24.5649123760       1 -0.1576  # F
      42   2  13.5442752587  20.5433906296  24.3223028463       1 -0.1576  # F
      43   1  15.2910527529  21.4301355900  24.6503575745       1  0.2465  # C
      44   2  16.2289152976  20.9659697079  24.0693906013       1 -0.1336  # F
      45   2  15.6930742169  22.6055902950  23.9546054540       1 -0.1336  # F
      46   1  14.6310850057  21.1319095998  25.2397872921       1  0.1317  # C
      47   2  14.3795207397  20.3486217409  24.8390552517       1 -0.1193  # F
      48   3  13.7889744121  21.4259214845  25.6954177962       1 -0.3109  # GFOc
      49   1  12.9157292473  22.2262411202  25.0505750263       1  0.4954  # C
      50   2  13.6054365886  22.1507713847  24.6760621667       1 -0.1280  # F
      51   2  11.8366522246  22.0336637946  24.7764481938       1 -0.1559  # F
      52   1  12.6006897513  23.1549198245  25.5826196008       1  0.0465  # C
      53   2  11.4649510204  23.5807018141  25.0677228737       1 -0.1122  # F
      54   1  12.7292749860  22.6575913246  26.4680900837       1  0.5842  # C
      55   2  11.8023965382  22.9070665609  25.9219608442       1 -0.1563  # F
      56   2  12.8759542035  21.7473381190  27.1521306312       1 -0.1736  # F
      57   2  13.0557293976  23.2721893762  27.1005119752       1 -0.1844  # F
      58   3  13.1281995535  24.0509538008  25.7307618657       1 -0.2516  # GFOc
      59   1  13.8258340674  23.9580655044  24.7412268430       1  0.4557  # C
      60   2  14.0240633472  22.5849435200  24.1445452347       1 -0.1368  # F
      61   2  13.0560084304  24.9400522226  24.6688998440       1 -0.1393  # F
      62   1  14.6954939312  24.1954905108  24.1129849564       1  0.1062  # C
      63   2  14.9889961025  22.8135255440  24.3151426557       1 -0.1457  # F
      64   2  13.9757457727  24.5990256365  23.2326380796       1 -0.1482  # F
      65   4  15.3136434297  25.2586166166  24.1534442531       1  1.1345  # GGS
      66   5  15.6966137207  25.8075870618  25.1349390986       1 -0.6371  # GOs
      67   5  14.2194265083  25.7647411163  24.1128440837       1 -0.6371  # GOs
      68   5  15.9492464319  25.9956603382  23.5677750962       1 -0.6371  # GOs
      69   6  16.3093974288  25.1448458732  23.1268315202       1  1.0000  # Na
      70   1  14.9110257738  21.2000784614  25.8328392854       1  0.3275  # C
      71   2  14.6357397674  21.0864847636  26.8299871447       1 -0.1576  # F
      72   2  15.4660169934  21.8925601341  25.3275004465       1 -0.1576  # F
      73   1  14.6663711678  20.1281092300  26.1689326183       1  0.3275  # C
      74   2  15.4339000184  19.7415197464  25.6488722619       1 -0.1576  # F
      75   2  14.9871081122  19.8340972954  27.3551754280       1 -0.1576  # F
      76   1  13.4414463211  19.8767470749  25.6771746696       1  0.3275  # C
      77   2  12.8633681557  20.1338032549  24.7852708339       1 -0.1576  # F
      78   2  13.7615629550  20.2547447267  26.6880925028       1 -0.1576  # F
      79   1  12.6461592159  19.4513846201  26.1486719533       1  0.3275  # C
      80   2  12.7967053852  19.2248091807  27.0899361725       1 -0.1576  # F
      81   2  12.6633511182  20.6915578868  26.1995304771       1 -0.1576  # F
      82   1  11.9131457109  18.4371105372  25.7232877363       1  0.3275  # C
      83   2  11.6074229492  18.3626910294  24.8389100534       1 -0.1576  # F
      84   2  11.6739426936  18.5890424976  26.7626311436       1 -0.1576  # F
      85   1  12.7473249499  17.3485935239  25.5680213029       1  0.3275  # C
      86   2  12.6666773653  16.9816125565  24.6353232799       1 -0.1576  # F
      87   2  12.6263653209  16.1740517773  26.1223293342       1 -0.1576  # F
      88   1  13.5955105597  17.2585806017  25.2036268945       1  0.3275  # C
      89   2  13.1150623826  15.9962042018  25.5807310140       1 -0.1576  # F
      90   2  14.6902255903  17.0614109004  24.4642380564       1 -0.1576  # F
      91   1  13.8139182457  17.5828848322  26.1333066527       1  0.3275  # C
      92   2  13.4703113096  16.8852158411  26.8115339100       1 -0.1576  # F
      93   2  12.4701763389  18.5107730796  26.5339721879       1 -0.1576  # F
      94   1  14.7611350308  18.2562668272  26.3798007828       1  0.3275  # C
      95   2  15.6777554949  17.5479195342  26.6505348654       1 -0.1576  # F
      96   2  14.9465417081  18.8447575587  27.2814829141       1 -0.1576  # F
      97   1  15.8839286399  18.2186328786  25.3945665200       1  0.3275  # C
      98   2  16.6909537267  18.2872393385  25.7870646879       1 -0.1576  # F
      99   2  16.3839880791  17.2760565296  25.8881083750       1 -0.1576  # F
     100   1  16.0256848532  18.7320921537  24.4852895968       1  0.3275  # C
     101   2  16.3744791221  18.6288441308  23.4223774449       1 -0.1576  # F
     102   2  16.5586418275  19.8019185140  24.5992788750       1 -0.1576  # F
     103   1  15.5338544385  17.7373432468  24.3315305246       1  0.3275  # C
     104   2  15.6798201610  16.6824718645  25.0725378542       1 -0.1576  # F
     105   2  16.2313892482  17.5365516862  23.3265634684       1 -0.1576  # F
     106   1  14.4032465076  17.8768946639  23.5603179946       1  0.3275  # C
     107   2  13.7963492100  17.8001760571  24.3795456823       1 -0.1576  # F
     108   2  14.5274534675  16.8997115349  23.6739694827       1 -0.1576  # F
     109   1  14.8085375325  18.8008743861  22.8432159701       1  0.3275  # C
     110   2  15.3662871868  19.5939379132  23.3152132770       1 -0.1576  # F
     111   2  15.4207047773  18.7074571041  21.9622970232       1 -0.1576  # F
     112   1  13.8446266020  18.6656005220  22.2240638370       1  0.2465  # C
     113   2  14.1852904882  17.9812609718  21.6061973272       1 -0.1336  # F
     114   2  12.9449633226  17.7655478939  22.1361600150       1 -0.1336  # F
     115   1  13.6053690594  19.7809391026  21.6858493937       1  0.1317  # C
     116   2  13.1147914373  19.8056945158  22.8618702876       1 -0.1193  # F
     117   3  13.3167419013  19.5542439724  20.8199101762       1 -0.3109  # GFOc
     118   1  13.1913092978  19.5823707819  20.0090162463       1  0.4954  # C
     119   2  12.6182214003  20.4660767151  19.8710336862       1 -0.1280  # F
     120   2  12.2054521230  19.3910445373  19.3533084983       1 -0.1559  # F
     121   1  13.9792155132  20.0772286208  19.3633677357       1  0.0465  # C
     122   2  14.2257616785  20.8454951149  18.9927243168       1 -0.1122  # F
     123   1  13.6038026571  20.3378927028  18.1334726057       1  0.5842  # C
     124   2  14.1599742527  19.7866245299  17.6264075591       1 -0.1563  # F
     125   2  12.7322054130  19.8564719544  17.9589139451       1 -0.1736  # F
     126   2  13.3306957304  21.6632811750  17.3109091741       1 -0.1844  # F
     127   3  14.2738366584  19.2679082709  19.4190557616       1 -0.2516  # GFOc
     128   1  15.0800037712  18.8779836390  20.2905889663       1  0.4557  # C
     129   2  15.1039833001  19.3379454512  21.0939984928       1 -0.1368  # F
     130   2  16.3585732506  18.8641089760  19.6370795813       1 -0.1393  # F
     131   1  14.6314951281  18.2190393722  21.0417966010       1  0.1062  # C
     132   2  14.2076087060  19.1709838153  21.5062842636       1 -0.1457  # F
     133   2  14.9542541683  17.3994459986  21.5178913140       1 -0.1482  # F
     134   4  14.5482927191  17.4848891606  20.5102315024       1  1.1345  # GGS
     135   5  13.7927451323  17.3037059621  21.2544391470       1 -0.6371  # GOs
     136   5  15.3211988975  17.7246547042  19.5616026786       1 -0.6371  # GOs
     137   5  14.1348026296  16.9603529594  19.5078006724       1 -0.6371  # GOs
     138   6  13.8824162132  16.1956599304  19.2242200983       1  1.0000  # Na
     139   1  14.1040079945  20.6031963093  21.9800411368       1  0.3275  # C
     140   2  15.1713076311  21.4561164963  22.7039519919       1 -0.1576  # F
     141   2  13.1608073535  21.2196684570  21.7865233603       1 -0.1576  # F
     142   1  14.4452609895  20.7714579533  21.0436834436       1  0.3275  # C
     143   2  13.7760070763  20.1967704565  20.3729714873       1 -0.1576  # F
     144   2  14.4968826014  20.0209400688  20.2325009748       1 -0.1576  # F
     145   1  14.6706658289  21.7584314436  21.6200719205       1  0.3275  # C
     146   2  15.6333625859  22.0282663173  21.9170924757       1 -0.1576  # F
     147   2  14.6173560021  22.9122345869  20.6009028011       1 -0.1576  # F
     148   1  14.2165892869  22.1919448053  22.3705080217       1  0.3275  # C
     149   2  14.3857634851  21.4909805012  23.2135521123       1 -0.1576  # F
     150   2  14.3334969179  22.7287374615  22.8735329747       1 -0.1576  # F
     151   1  12.9424196285  22.5359286227  22.2199644889       1  0.3275  # C
     152   2  13.1291616126  22.5329857736  21.2511819283       1 -0.1576  # F
     153   2  12.6980043602  23.4976117631  22.3991622542       1 -0.1576  # F
     154   1  11.8147063938  22.0422906868  22.2037642557       1  0.3275  # C
     155   2  11.2049220325  21.8852044621  23.0991242400       1 -0.1576  # F
     156   2  11.4170209796  22.5603913737  21.1475016214       1 -0.1576  # F
     157   1  11.7758372534  20.9406753971  21.9050975142       1  0.3275  # C
     158   2  11.5287006590  20.1306893751  22.1708186124       1 -0.1576  # F
     159   2  12.4175396682  21.4214869693  21.4206208839       1 -0.1576  # F
     160   1  10.6971492082  21.1344082731  21.0068812087       1  0.3275  # C
     161   2  10.2606946388  22.4036093122  20.2952355266       1 -0.1576  # F
     162   2  10.8742845939  20.7633673570  19.8467015148       1 -0.1576  # F
     163   1  10.3045752208  20.8531446647  21.3783855887       1  0.3275  # C
     164   2   9.7045926043  21.6935697432  21.8030920722       1 -0.1576  # F
     165   2  10.3854155310  20.0120890167  22.5319220015       1 -0.1576  # F
     166   1   9.4753512019  19.8941099235  21.2454229125       1  0.3275  # C
     167   2   8.6862753412  19.7725024101  20.2112545643       1 -0.1576  # F
     168   2   9.5477749628  19.5144850167  22.3423631654       1 -0.1576  # F
     169   1   9.5632928822  19.3815255392  20.4322804718       1  0.3275  # C
     170   2  10.2261725466  19.1644402555  20.5066347550       1 -0.1576  # F
     171   2   8.8450042134  19.3366999831  19.5055564067       1 -0.1576  # F
     172   1   8.9605519751  18.9240734907  21.4871730944       1  0.3275  # C
     173   2   8.1288950979  18.6600458390  20.6349886554       1 -0.1576  # F
     174   2  10.0820419536  18.7708085705  21.9257536481       1 -0.1576  # F
     175   1   8.9146555717  17.6330646493  21.8569520399       1  0.3275  # C
     176   2   8.6785507325  17.7332645623  21.1406857229       1 -0.1576  # F
     177   2   7.7986758041  17.6047813767  22.0926178704       1 -0.1576  # F
     178   1   8.9457446139  17.0715338293  23.0475466960       1  0.3275  # C
     179   2   8.4214391883  17.3382576186  23.5372751127       1 -0.1576  # F
     180   2   9.0506935866  16.2283467292  22.6223083760       1 -0.1576  # F
     181   1   9.6766752599  16.9235282143  23.0718851224       1  0.2465  # C
     182   2  10.2697184652  16.6404004781  23.8951061789       1 -0.1336  # F
     183   2   9.7562773749  15.4740147839  23.2607937069       1 -0.1336  # F
     184   1  10.3301884801  17.7951800200  22.4609924284       1  0.1317  # C
     185   2   9.8685078770  18.5631893776  22.8469031571       1 -0.1193  # F
     186   3  10.7688883668  17.3647683881  21.4746939910       1 -0.3109  # GFOc
     187   1  11.4414901841  16.3168380286  21.5908323678       1  0.4954  # C
     188   2  12.3801726575  15.7857395782  20.9013804286       1 -0.1280  # F
     189   2  10.8510562636  15.5773967103  21.9813393726       1 -0.1559  # F
     190   1  12.0012724436  16.8203853121  22.0997994028       1  0.0465  # C
     191   2  11.9186873805  16.4395799289  22.9283132146       1 -0.1122  # F
     192   1  12.0489389915  17.7232488579  21.0262407832       1  0.5842  # C
     193   2  11.7609827748  19.2481878902  21.2758215669       1 -0.1563  # F
     194   2  12.1723427982  17.1446050115  20.1101600388       1 -0.1736  # F
     195   2  13.2329372968  17.9521438146  21.0813933767       1 -0.1844  # F
     196   3  11.9022884007  15.8885487372  21.9860168714       1 -0.2516  # GFOc
     197   1  11.6785445428  15.0393966291  22.8844095412       1  0.4557  # C
     198   2  11.5515374226  14.0812992198  22.8027345622       1 -0.1368  # F
     199   2  11.6538500412  15.3599443028  23.9486407885       1 -0.1393  # F
     200   1  12.3446903717  14.2732136299  23.0544690350       1  0.1062  # C
     201   2  13.2853739648  14.8617273132  23.1330288039       1 -0.1457  # F
     202   2  12.1342846789  13.7354039690  23.7244460753       1 -0.1482  # F
     203   4  12.4372315902  13.3577800917  22.4739467356       1  1.1345  # GGS
     204   5  13.4588863247  13.9731434390  22.3875454763       1 -0.6371  # GOs
     205   5  11.6163659509  13.3438231242  22.0745442003       1 -0.6371  # GOs
     206   5  12.2498082885  12.2716061446  23.1748696934       1 -0.6371  # GOs
     207   6  11.7440012144  12.8421025200  23.8477303220       1  1.0000  # Na
     208   1  11.4258904134  18.2493033650  22.7349196064       1  0.3275  # C
     209   2  10.7622091690  19.0415888953  23.4681906603       1 -0.1576  # F
     210   2  11.4066747690  19.0249485134  22.0677527867       1 -0.1576  # F
     211   1  12.0525363734  17.1829212556  23.6263981130       1  0.3275  # C
     212   2  12.1664126187  15.8035502504  23.6447586131       1 -0.1576  # F
     213   2  11.3634068885  17.2361624953  24.0527966483       1 -0.1576  # F
     214   1  12.7355029554  16.6518664892  24.2369467737       1  0.3275  # C
     215   2  13.4367127288  15.8097070537  24.6336148605       1 -0.1576  # F
     216   2  11.8737863045  16.7157878554  24.8872937276       1 -0.1576  # F
     217   1  13.7611726259  16.3438714158  24.2773839181       1  0.3275  # C
     218   2  13.7977688191  16.5409350209  25.4728128982       1 -0.1576  # F
     219   2  14.0865495024  15.7748464765  23.6948690443       1 -0.1576  # F
     220   1  13.9130774244  17.0360824668  23.2852663502       1  0.3275  # C
     221   2  14.6542146585  16.2343395248  23.0090430807       1 -0.1576  # F
     222   2  14.2482226518  17.6595332760  22.5877257691       1 -0.1576  # F
     223   1  13.0856680618  17.0709809102  22.7666021731       1  0.3275  # C
     224   2  13.3969799359  16.4628167073  21.9120847696       1 -0.1576  # F
     225   2  12.5481707026  16.0047584981  23.1241841630       1 -0.1576  # F
     226   1  12.5385344728  18.5504067690  22.7988118059       1  0.3275  # C
     227   2  13.1972799736  18.8392702706  23.4962622024       1 -0.1576  # F
     228   2  12.6869424731  18.7835715084  21.7171005041       1 -0.1576  # F
     229   1  12.0618492024  19.6487281451  22.8549508227       1  0.3275  # C
     230   2  11.1264406967  19.4784953703  22.5157430034       1 -0.1576  # F
     231   2  11.9170740684  19.8633016534  24.1491106121       1 -0.1576  # F
     232   1  13.0409883771  20.5019209724  22.4075594971       1  0.3275  # C
     233   2  12.6681887794  20.0855699396  21.5024068487       1 -0.1576  # F
     234   2  14.0271772326  19.7847540119  22.7546619662       1 -0.1576  # F
     235   1  12.7322869249  20.8970264812  23.2910899782       1  0.3275  # C
     236   2  12.5421942189  21.6468154762  22.8200366555       1 -0.1576  # F
     237   2  13.2932038670  21.2951140777  24.1413981007       1 -0.1576  # F
     238   1  12.0847295237  20.3279268394  23.6364033967       1  0.3275  # C
     239   2  10.9949968829  20.5593389552  23.2488562048       1 -0.1576  # F
     240   2  12.2018915352  19.2728727474  23.4781746763       1 -0.1576  # F
     241   1  12.4303519512  20.2484361810  24.4188906583       1  0.3275  # C
     242   2  12.7326489817  21.0737270857  24.8727257923       1 -0.1576  # F
     243   2  11.8411670677  20.8239102667  25.5748333532       1 -0.1576  # F
     244   1  12.4108669955  19.0676358172  24.8225930252       1  0.3275  # C
     245   2  12.9091882670  18.0823580199  25.2666538526       1 -0.1576  # F
     246   2  12.0608254056  19.7430870180  25.7210502415       1 -0.1576  # F
     247   1  12.3958127928  18.4966955348  24.0548461265       1  0.3275  # C
     248   2  12.8495295878  17.4417631047  23.5901463894       1 -0.1576  # F
     249   2  12.6490269354  19.1400302264  22.6994326386       1 -0.1576  # F
     250   1  11.3655311361  18.1650585475  23.8051261564       1  0.2465  # C
     251   2  11.1250801676  17.6617147433  22.8708158635       1 -0.1336  # F
     252   2  10.9238418750  19.2537262534  24.6295576158       1 -0.1336  # F
     253   1  10.6161136259  17.4044191037  23.7665020945       1  0.1317  # C
     254   2  10.7779985812  16.5376757053  24.8457844114       1 -0.1193  # F
     255   3  10.6605329631  16.5121787167  22.9929836771       1 -0.3109  # GFOc
     256   1  10.4173655947  16.4708653640  21.8525530723       1  0.4954  # C
     257   2   9.8003041058  17.3743277282  21.6075369736       1 -0.1280  # F
     258   2   9.4709074390  16.3409483627  21.7178638060       1 -0.1559  # F
     259   1  10.9609595393  16.2084308865  21.0634345992       1  0.0465  # C
     260   2  11.5135792362  15.0975487265  21.7810781783       1 -0.1122  # F
     261   1  11.4840223945  17.1683494943  20.8449326960       1  0.5842  # C
     262   2  12.5501027333  16.8934730929  21.3026914073       1 -0.1563  # F
     263   2  10.6098506038  17.7087302386  21.1096447876       1 -0.1736  # F
     264   2  11.8056240954  18.1019370238  20.2376386579       1 -0.1844  # F
     265   3  11.8910928371  16.3784218116  20.1735535649       1 -0.2516  # GFOc
     266   1  11.4523103579  15.8927484219  19.5403356879       1  0.4557  # C
     267   2  12.0717436819  14.5213526684  19.0774310905       1 -0.1368  # F
     268   2  11.7135305474  15.7596215323  18.3504606004       1 -0.1393  # F
     269   1  11.1503776787  15.8448303162  20.2923398461       1  0.1062  # C
     270   2  11.2268773374  16.6510241787  19.7101274017       1 -0.1457  # F
     271   2  11.1213845654  14.9493968914  20.9996566846       1 -0.1482  # F
     272   4   9.7644143282  15.6391132256  20.5196062512       1  1.1345  # GGS
     273   5   9.7624993140  16.6868471931  20.8134684231       1 -0.6371  # GOs
     274   5  10.1092864895  14.9691296374  20.4932665711       1 -0.6371  # GOs
     275   5   9.0737060219  15.4477159625  21.0207845419       1 -0.6371  # GOs
     276   6   8.3380522846  15.9124491679  21.4187249129       1  1.0000  # Na
     277   1   9.5199897530  17.7024916331  23.8291812633       1  0.3275  # C
     278   2   9.0614471230  17.0776562122  24.6893547804       1 -0.1576  # F
     279   2   8.8405183796  17.9999405179  23.0995619759       1 -0.1576  # F
     280   1   8.9392451666  18.4375612376  25.1433192487       1  0.3275  # C
     281   2   9.5166917703  17.8789002941  25.7181909389       1 -0.1576  # F
     282   2   9.2610628015  19.6196516368  25.1467679006       1 -0.1576  # F
     283   1   7.9852934781  18.6813681243  24.8987442545       1  0.3275  # C
     284   2   8.3045163499  19.8803751224  25.3826216640       1 -0.1576  # F
     285   2   8.0185850371  18.0947116723  24.2742458758       1 -0.1576  # F
     286   1   7.0444699439  18.4037044382  25.5517964145       1  0.3275  # C
     287   2   6.5434227348  19.2462885598  25.0515236925       1 -0.1576  # F
     288   2   7.7762208510  17.6455526996  25.9196091797       1 -0.1576  # F
     289   1   6.7341366999  18.4974613017  26.3128465673       1  0.3275  # C
     290   2   7.0799823379  19.5854999957  26.0226160465       1 -0.1576  # F
     291   2   6.0450341661  17.8432468614  26.3465450699       1 -0.1576  # F
     292   1   6.5097898807  18.0019635865  27.4984988903       1  0.3275  # C
     293   2   7.3221003609  18.6273126673  28.2085706829       1 -0.1576  # F
     294   2   6.2162100477  16.9089874267  27.3923702536       1 -0.1576  # F
     295   1   5.5971660225  18.5407658113  27.2951599753       1  0.3275  # C
     296   2   4.9333973628  17.5308887876  27.9589828750       1 -0.1576  # F
     297   2   4.9915510360  17.7827334030  26.0472376467       1 -0.1576  # F
     298   1   5.4717576858  19.7561999151  27.3157455701       1  0.3275  # C
     299   2   4.8651581659  20.7349869579  27.2963603897       1 -0.1576  # F
     300   2   4.8855586905  20.2935926356  28.1324930621       1 -0.1576  # F
     301   1   6.4417002223  20.1939600662  26.9899847102       1  0.3275  # C
     302   2   6.8543877791  20.8427957601  25.8031781278       1 -0.1576  # F
     303   2   6.9067773669  19.5357576108  27.4750861886       1 -0.1576  # F
     304   1   5.4771178088  19.7336311239  26.2492995040       1  0.3275  # C
     305   2   4.6028630998  19.6768880387  27.1203412723       1 -0.1576  # F
     306   2   5.4839120035  18.8922427228  26.6438023877       1 -0.1576  # F
     307   1   5.2501145857  19.4950920007  24.9981856982       1  0.3275  # C
     308   2   5.4382821963  20.2850534212  25.5325028608       1 -0.1576  # F
     309   2   5.1282022871  18.3417607402  24.9188661044       1 -0.1576  # F
     310   1   5.3259921295  19.4315774106  23.8887006747       1  0.3275  # C
     311   2   5.6995722829  20.0122428205  22.9811962914       1 -0.1576  # F
     312   2   4.2945991271  19.3789713724  23.9180040319       1 -0.1576  # F
     313   1   6.3137357262  19.3672478169  23.6403042601       1  0.3275  # C
     314   2   6.0942197260  18.8976835784  22.6569539188       1 -0.1576  # F
     315   2   6.9080449209  18.3066168912  24.3256002004       1 -0.1576  # F
     316   1   6.7498822268  20.3534647655  23.7968672640       1  0.3275  # C
     317   2   6.4933508725  20.5321579601  24.6832127716       1 -0.1576  # F
     318   2   7.5001762883  20.7513863938  24.4278486808       1 -0.1576  # F
     319   1   6.9922171576  21.1499721134  22.4052198950       1  0.2465  # C
     320   2   6.0213712749  21.4050470564  22.5538508252       1 -0.1336  # F
     321   2   6.7789186868  20.5513270854  21.5643296701       1 -0.1336  # F
     322   1   7.9955638031  21.8535093562  22.2459353421       1  0.1317  # C
     323   2   8.0688575457  21.7692991706  21.3099423017       1 -0.1193  # F
     324   3   7.7955595413  22.8100368869  22.5889869043       1 -0.3109  # GFOc
     325   1   7.5366102985  22.6916752216  23.4206847957       1  0.4954  # C
     326   2   8.7902462072  23.1994951052  24.1400546436       1 -0.1280  # F
     327   2   7.3309788424  21.8637436274  23.1646103378       1 -0.1559  # F
     328   1   6.8770921985  23.3981347071  23.8982235369       1  0.0465  # C
     329   2   6.2672310349  23.7313784987  23.1318118992       1 -0.1122  # F
     330   1   7.1984813437  23.4884360623  24.5080367344       1  0.5842  # C
     331   2   6.8499321670  22.5844090816  25.7503976616       1 -0.1563  # F
     332   2   7.4747149286  24.3767900832  23.9900392075       1 -0.1736  # F
     333   2   8.2531274633  23.3259868795  25.2118107314       1 -0.1844  # F
     334   3   6.2483333831  22.6518566543  23.9554579615       1 -0.2516  # GFOc
     335   1   5.0972333292  22.3906500861  24.3339500420       1  0.4557  # C
     336   2   4.0005846458  22.9256567083  23.8544427957       1 -0.1368  # F
     337   2   4.7999941807  22.8689280375  25.4567470754       1 -0.1393  # F
     338   1   5.1595759320  21.6687041903  24.3255491162       1  0.1062  # C
     339   2   6.1449866482  21.7343518040  24.5871484883       1 -0.1457  # F
     340   2   5.8628977639  21.6825641720  23.4798356582       1 -0.1482  # F
     341   4   3.7234835762  21.1536897832  23.8021442507       1  1.1345  # GGS
     342   5   2.9577332216  20.8317798106  24.1561015752       1 -0.6371  # GOs
     343   5   3.3982384068  20.3665457426  23.0821170642       1 -0.6371  # GOs
     344   5   3.6768720922  21.3641116761  22.8811568015       1 -0.6371  # GOs
     345   6   3.5320881590  22.4647895135  22.2580167310       1  1.0000  # Na
     346   1   8.5237928229  21.5948538817  23.1332173459       1  0.3275  # C
     347   2   9.2392412913  21.7252313900  23.6745090672       1 -0.1576  # F
     348   2   7.9164457860  21.8261482833  23.6450245056       1 -0.1576  # F
     349   1   8.7134603056  20.5363421913  22.8771984951       1  0.3275  # C
     350   2   8.2787178804  20.7583492757  23.4571667750       1 -0.1576  # F
     351   2   8.7096407683  19.5357783379  22.7231570776       1 -0.1576  # F
     352   1   9.3459364587  20.8144925013  22.0693297596       1  0.3275  # C
     353   2  10.7549823297  20.9925928150  22.1191851024       1 -0.1576  # F
     354   2   9.3178435409  21.1620775720  23.0601183742       1 -0.1576  # F
     355   1   9.1948636532  20.8791653967  21.0655385116       1  0.3275  # C
     356   2   8.0286422133  20.4720973476  20.9536048673       1 -0.1576  # F
     357   2   9.7477089780  21.5094229491  20.7795051850       1 -0.1576  # F
     358   1   8.8474918774  20.3438502480  20.4425165617       1  0.3275  # C
     359   2   7.8542428473  20.4419192145  20.1320786040       1 -0.1576  # F
     360   2   8.3534056495  19.4880010538  21.0661191110       1 -0.1576  # F
     361   1  10.0514620029  20.7956668106  19.8029175746       1  0.3275  # C
     362   2  10.9014332079  20.1772321383  19.9832650565       1 -0.1576  # F
     363   2   9.0165877780  20.5304850125  19.2039213287       1 -0.1576  # F
     364   1  10.3021534146  21.7831136199  19.7187421769       1  0.3275  # C
     365   2   9.4878015782  22.5700873082  19.5154886961       1 -0.1576  # F
     366   2  10.8162822255  21.5422842969  18.7320889997       1 -0.1576  # F
     367   1  11.1446277556  21.9139881797  20.6391577686       1  0.3275  # C
     368   2  11.4861366529  21.5576556152  21.6229479238       1 -0.1576  # F
     369   2  11.2056776446  21.3318265968  19.2558427809       1 -0.1576  # F
     370   1  11.2604472812  23.1168613952  20.7175489020       1  0.3275  # C
     371   2  10.3412577736  23.7570460218  20.7533098152       1 -0.1576  # F