LAMMPS output created by EMC v9.4.4, build Aug  6 2019 08:14:42

        7994  atoms
6867 bonds
10430 angles
13377 dihedrals

           8  atom types
           7  bond types
          12  angle types
          14  dihedral types

             0    43.07791893  xlo xhi
             0    43.07791893  ylo yhi
             0    43.07791893  zlo zhi

Masses

	   1   12.01115  # c
       2   18.99840  # f
       3   15.99940  # oc
       4   32.06400  # s
       5   15.99940  # o=       
	   6    22.990 	 # na+
       7    1.00797  # hw
       8    15.99940  # o*

Atoms

1 1 1 0.3275 4.1839001305 42.7594191608 36.1007678471 # C
2 1 2 -0.1576 3.6412278088 0.0057444295 36.7341981602 # F
3 1 2 -0.1576 4.5377546864 41.8890695859 35.6108854465 # F
4 1 1 0.3275 5.2387699654 42.9060828406 36.2484377718 # C
5 1 2 -0.1576 5.7294203319 0.3543339087 35.0586488306 # F
6 1 2 -0.1576 5.6017475407 42.0981726153 36.1120406569 # F
7 1 1 0.3275 5.6332198706 0.1035951739 37.3018970639 # C
8 1 2 -0.1576 4.6581720636 0.8465349579 37.6278015662 # F
9 1 2 -0.1576 5.5523874400 42.0371476999 37.4752920455 # F
10 1 1 0.3275 6.2845111444 0.7614399599 37.2719164392 # C
11 1 2 -0.1576 7.1941203920 0.0367319835 36.9560562976 # F
12 1 2 -0.1576 5.4756392585 1.1524464954 36.0718350680 # F
13 1 1 0.3275 6.5298430808 1.6904639968 37.8754739215 # C
14 1 2 -0.1576 6.2446151485 2.4771008022 37.2718055955 # F
15 1 2 -0.1576 5.6111595043 1.5857170242 38.6499833911 # F
16 1 1 0.3275 6.8025600650 1.9710206134 38.7658639872 # C
17 1 2 -0.1576 6.3352583579 1.3429231348 39.4507886511 # F
18 1 2 -0.1576 8.0517466436 1.7475136097 38.7173807158 # F
19 1 1 0.3275 7.2169185323 3.3696563197 38.7715672260 # C
20 1 2 -0.1576 7.4114240032 3.8824380673 39.4181766122 # F
21 1 2 -0.1576 6.7158625909 3.6331930645 38.0340692916 # F
22 1 1 0.3275 8.2268755827 3.4041686089 38.3956967163 # C
23 1 2 -0.1576 8.5149546244 4.2289997074 37.9209783894 # F
24 1 2 -0.1576 8.3736063710 2.7476424513 37.9064187634 # F
25 1 1 0.3275 8.2554814238 3.3224594385 39.3147862103 # C
26 1 2 -0.1576 8.2312697652 4.2884700187 39.6988231023 # F
27 1 2 -0.1576 7.6443682777 2.9960151123 39.6436234228 # F
28 1 1 0.3275 8.8252790652 2.8730945137 39.8298796902 # C
29 1 2 -0.1576 8.6782546404 3.0424543995 41.2751607499 # F
30 1 2 -0.1576 9.7526663808 3.4527898467 39.7816732395 # F
31 1 1 0.3275 9.0665976527 1.9699551149 40.2010652018 # C
32 1 2 -0.1576 8.3828749589 1.4926703409 39.4682407855 # F
33 1 2 -0.1576 8.9631203988 1.5186735302 40.9415458145 # F
34 1 1 0.3275 9.9554313658 2.7106223987 39.8530687410 # C
35 1 2 -0.1576 9.6278180573 3.2123309093 38.7944129291 # F
36 1 2 -0.1576 10.6836411427 2.0871841409 39.2262113952 # F
37 1 1 0.3275 10.4714364850 2.7304890375 40.4746552545 # C
38 1 2 -0.1576 10.5790058299 1.7440020046 40.6452362397 # F
39 1 2 -0.1576 9.8378924245 2.8965456224 41.4496301736 # F
40 1 1 0.3275 11.3115036054 3.6249004767 40.6583394068 # C
41 1 2 -0.1576 11.8406524270 2.9588412442 41.5574244199 # F
42 1 2 -0.1576 10.3569896620 3.8817465058 40.5943415807 # F
43 1 1 0.2465 11.6644968454 4.5898726694 39.9387003518 # C
44 1 2 -0.1336 10.4235419642 4.7323131618 39.9385667653 # F
45 1 2 -0.1336 11.6206913933 3.9361532796 38.7505822800 # F
46 1 1 0.1317 12.1774466552 5.3694051846 39.9879030988 # C
47 1 2 -0.1193 11.8069578537 6.1555062280 40.3354752079 # F
48 1 3 -0.3109 11.6746969921 6.2881484701 39.5970788687 # Oc
49 1 1 0.4954 11.2715637544 7.0113977765 39.1603229913 # C
50 1 2 -0.1280 10.2539436843 6.5802890446 39.3311606795 # F
51 1 2 -0.1559 10.8125526332 8.0337277922 39.3686127918 # F
52 1 1 0.0465 11.2613295671 7.2079667057 38.3426856122 # C
53 1 2 -0.1122 10.1771270477 6.7716388149 37.6023150271 # F
54 1 1 0.5842 11.8979711971 6.4831652937 38.0820844261 # C
55 1 2 -0.1563 12.1956244359 6.6767851206 37.1727300553 # F
56 1 2 -0.1736 13.0938567264 6.8535992996 38.8494100715 # F
57 1 2 -0.1844 11.5996910282 5.5928325294 37.8273352751 # F
58 1 3 -0.2516 11.8015720344 8.0092724536 37.7308071709 # Oc
59 1 1 0.4557 12.3564238670 8.8147580054 37.0639395693 # C
60 1 2 -0.1368 11.6547566036 9.7687772991 37.3182341219 # F
61 1 2 -0.1393 11.3766890964 9.0234027228 36.2245717782 # F
62 1 1 0.1062 13.0461150417 9.4194423758 36.8162521278 # C
63 1 2 -0.1457 13.6851654797 10.4501258285 36.6133555291 # F
64 1 2 -0.1482 12.9368237174 9.0494014335 35.7571531997 # F
65 1 4 1.1345 13.1842178170 9.4067702438 38.1360412178 # S
66 1 5 -0.6371 13.4230287263 10.4188076216 37.9432693778 # Os
67 1 5 -0.6371 13.3241216544 8.5052340295 38.0189544610 # Os
68 1 5 -0.6371 13.4303652929 9.5264938500 38.9644906282 # Os
69 1 6 1.0000 13.9933079889 9.5424279466 39.5706383905 # Na
70 1 1 0.3275 13.0968091602 5.1617431713 39.4727319067 # C
71 1 2 -0.1576 14.2479828077 5.4967093371 39.5247681584 # F
72 1 2 -0.1576 12.9620434063 4.4079474977 38.9153541063 # F
73 1 1 0.3275 13.1931409249 4.5574066547 39.9802317629 # C
74 1 2 -0.1576 13.3788030903 3.4655487060 39.3051958387 # F
75 1 2 -0.1576 12.7166709218 4.9677473891 40.8378904240 # F
76 1 1 0.3275 13.8260213237 4.2477609483 40.6398160860 # C
77 1 2 -0.1576 13.8486141547 3.0436111519 40.9943009578 # F
78 1 2 -0.1576 14.5640691774 4.8364092699 40.3915834707 # F
79 1 1 0.3275 13.8943402116 4.8593622606 41.5855526452 # C
80 1 2 -0.1576 14.8899344007 4.9590958282 41.6366990951 # F
81 1 2 -0.1576 13.5115212023 5.9454432601 41.6964540962 # F
82 1 1 0.3275 13.0885407550 4.2802965006 41.7995539805 # C
83 1 2 -0.1576 12.9449169009 4.7391886830 42.6315232167 # F
84 1 2 -0.1576 13.0895907630 3.3524274568 41.4064069428 # F
85 1 1 0.3275 12.1183992217 4.5540824973 41.4111163012 # C
86 1 2 -0.1576 11.7050106655 5.0902927234 40.6093085966 # F
87 1 2 -0.1576 10.9109207068 4.3076748171 41.6430228133 # F
88 1 1 0.3275 11.9185742590 3.7367003885 40.0550655457 # C
89 1 2 -0.1576 12.0824266486 3.5049212911 39.2183194420 # F
90 1 2 -0.1576 12.1269438302 2.9525130804 39.9870188776 # F
91 1 1 0.3275 11.3306252104 4.3122085369 39.1951381245 # C
92 1 2 -0.1576 10.3544188736 3.8094131180 39.4357388880 # F
93 1 2 -0.1576 11.8429656881 4.4035438674 38.1959677346 # F
94 1 1 0.3275 11.4357695784 5.1786067534 38.8726137331 # C
95 1 2 -0.1576 11.2543816979 5.4387352486 40.0804730677 # F
96 1 2 -0.1576 12.3661959709 5.6188711423 39.0088065275 # F
97 1 1 0.3275 10.5771269304 5.1265983011 38.2865103876 # C
98 1 2 -0.1576 9.8116606640 5.5479672025 38.5414915105 # F
99 1 2 -0.1576 10.3016354806 4.2528740369 38.6473908234 # F
100 1 1 0.3275 10.7007070743 5.3302979726 37.0069630507 # C
101 1 2 -0.1576 10.2608146341 4.1465385539 36.9079521304 # F
102 1 2 -0.1576 9.8487000418 5.7052103494 36.1773542455 # F
103 1 1 0.3275 11.6525250365 6.0343454623 36.6752740270 # C
104 1 2 -0.1576 12.2040941949 5.6397512175 37.2426852339 # F
105 1 2 -0.1576 11.5791576747 7.2767562681 37.0001579108 # F
106 1 1 0.3275 11.8241537026 6.1614402473 35.5440262711 # C
107 1 2 -0.1576 12.8528583811 6.1141354635 35.1561373894 # F
108 1 2 -0.1576 10.9218857343 6.7039798961 35.2193330800 # F
109 1 1 0.3275 12.0186960544 5.5588305721 34.8989685966 # C
110 1 2 -0.1576 12.6892083760 5.1500876648 35.2921903051 # F
111 1 2 -0.1576 12.1809245274 5.8718915138 34.3805304085 # F
112 1 1 0.2465 11.5116290524 4.6528347259 34.6522285247 # C
113 1 2 -0.1336 12.0277817554 3.6675804621 34.8639202572 # F
114 1 2 -0.1336 11.6355458758 4.3022287631 35.6529375449 # F
115 1 1 0.1317 10.5537626350 5.1253017477 33.6934623173 # C
116 1 2 -0.1193 11.3435689993 5.7237138771 33.7077782595 # F
117 1 3 -0.3109 10.6633421819 5.0742006566 32.7568369400 # Oc
118 1 1 0.4954 10.2218441660 5.3957668293 31.7763514417 # C
119 1 2 -0.1280 9.8627375479 5.4242100173 30.4269886836 # F
120 1 2 -0.1559 9.4920375465 4.9038954914 31.4165559320 # F
121 1 1 0.0465 10.4946885711 6.5798945167 32.6974243724 # C
122 1 2 -0.1122 9.5165034934 6.6409246333 32.6956923066 # F
123 1 1 0.5842 11.0210186381 7.2005280929 32.8871013691 # C
124 1 2 -0.1563 12.2443925008 6.8958160120 32.6489419245 # F
125 1 2 -0.1736 10.6249077642 6.9914174002 33.8057213096 # F
126 1 2 -0.1844 11.1329415314 8.1451097976 32.9902481339 # F
127 1 3 -0.2516 11.4109553485 6.2345191597 32.6933018626 # Oc
128 1 1 0.4557 12.4630020702 6.1549701373 33.5527800846 # C
129 1 2 -0.1368 12.9049806898 6.7587760174 34.5253772387 # F
130 1 2 -0.1393 12.4009921697 5.7935932016 32.5385765541 # F
131 1 1 0.1062 13.0963866029 5.1422017345 33.9017774940 # C
132 1 2 -0.1457 12.9396976244 4.4821855931 33.2068761388 # F
133 1 2 -0.1482 12.8212681051 4.5395193046 34.4951914863 # F
134 1 4 1.1345 13.8679498106 5.2291404472 33.5566622535 # S
135 1 5 -0.6371 13.8000153120 4.5456890979 32.9440512483 # Os
136 1 5 -0.6371 14.4214080815 6.2503718336 34.0614822900 # Os
137 1 5 -0.6371 14.5175686487 5.9463636839 33.3716759635 # Os
138 1 6 1.0000 15.0677937551 6.7216475308 32.9443720524 # Na
139 1 1 0.3275 9.6260259363 5.4849682848 33.7768855948 # C
140 1 2 -0.1576 9.1759392824 4.4130183809 33.7460840296 # F
141 1 2 -0.1576 9.0553373937 5.6195470483 32.6242504117 # F
142 1 1 0.3275 9.7521902977 6.2021794578 34.2549123120 # C
143 1 2 -0.1576 10.1007139287 6.0737266593 33.1566388048 # F
144 1 2 -0.1576 9.4366820728 5.5885205745 35.3537597237 # F
145 1 1 0.3275 9.9266367599 7.1698801208 34.7921355599 # C
146 1 2 -0.1576 11.0204295546 7.4826454226 34.7049660010 # F
147 1 2 -0.1576 9.1255928489 7.1991470933 35.0266412067 # F
148 1 1 0.3275 9.9065961189 6.6646055797 35.9364134054 # C
149 1 2 -0.1576 8.8491133151 6.1257797537 36.3859100313 # F
150 1 2 -0.1576 10.5668666042 5.9563125700 36.1533417989 # F
151 1 1 0.3275 11.2718617411 6.6272196813 36.4829520125 # C
152 1 2 -0.1576 11.2550338763 5.1366283843 36.2403724832 # F
153 1 2 -0.1576 10.8871848619 6.9445351809 37.4162871715 # F
154 1 1 0.3275 12.8012708696 7.0538325628 36.6310490575 # C
155 1 2 -0.1576 12.3201025500 7.4616476857 37.7853678742 # F
156 1 2 -0.1576 13.1512005902 7.1664660275 35.8337933329 # F
157 1 1 0.3275 13.8476478840 7.0551492401 37.0271119999 # C
158 1 2 -0.1576 14.5137711445 7.4385185478 36.2246266713 # F
159 1 2 -0.1576 14.5192515023 6.9575409771 37.6947133711 # F
160 1 1 0.3275 13.4317135636 7.5818580993 37.7063622514 # C
161 1 2 -0.1576 13.0766176279 8.0319783876 36.6205161979 # F
162 1 2 -0.1576 13.1610765189 7.4980208852 38.4288855035 # F
163 1 1 0.3275 14.5451496786 8.2527517027 37.7143772364 # C
164 1 2 -0.1576 14.8744705605 8.4101355603 36.9417719347 # F
165 1 2 -0.1576 14.0000389742 8.7012508861 38.4325167579 # F
166 1 1 0.3275 15.8285379982 8.6443441615 38.5831888709 # C
167 1 2 -0.1576 16.8058064705 9.8313073477 38.9931709606 # F
168 1 2 -0.1576 15.8950162828 8.2418129694 39.9316212650 # F
169 1 1 0.3275 16.7414999999 8.2216539821 38.2253375099 # C
170 1 2 -0.1576 17.3654624832 7.7155204591 37.4338587295 # F
171 1 2 -0.1576 16.8365583245 8.8191456807 38.9084930551 # F
172 1 1 0.3275 17.6674378665 7.8338747798 38.7781140373 # C
173 1 2 -0.1576 17.1380939959 7.1782379373 39.5208500584 # F
174 1 2 -0.1576 18.2683342542 8.5797809797 39.6115554443 # F
175 1 1 0.3275 18.2475765721 7.2780791554 38.3523328669 # C
176 1 2 -0.1576 18.3412436024 6.4605775064 39.1599798226 # F
177 1 2 -0.1576 18.4153468301 7.2214084906 37.5479912876 # F
178 1 1 0.3275 19.1453498564 7.6925952723 38.6014841942 # C
179 1 2 -0.1576 18.9370108566 8.1864363226 38.0705155872 # F
180 1 2 -0.1576 18.7536674428 7.9652425536 39.4365026209 # F
181 1 1 0.2465 19.9953340723 7.0397347942 38.7124222059 # C
182 1 2 -0.1336 20.5986528501 5.8351421222 38.1849190909 # F
183 1 2 -0.1336 20.4437769124 6.7002906928 39.4447164637 # F
184 1 1 0.1317 19.6969078970 7.8520090232 37.9152193653 # C
185 1 2 -0.1193 20.1242824436 8.8639091062 38.4244611373 # F
186 1 3 -0.3109 19.8563565144 7.4903103011 36.6782211706 # Oc
187 1 1 0.4954 20.0637506592 7.7108064616 35.5847086784 # C
188 1 2 -0.1280 21.2500022766 7.8812369289 35.5712653957 # F
189 1 2 -0.1559 20.1348565501 6.7662634888 35.7699671629 # F
190 1 1 0.0465 19.9970473992 7.3213391025 34.2930908828 # C
191 1 2 -0.1122 18.8847940337 7.3804375524 34.4016112766 # F
192 1 1 0.5842 19.7231181204 6.0987034699 34.1712337067 # C
193 1 2 -0.1563 18.8500651921 5.7787304967 35.2994226480 # F
194 1 2 -0.1736 18.7558703294 5.8911838384 33.3623269468 # F
195 1 2 -0.1844 20.1751952996 5.4235091021 34.0010012397 # F
196 1 3 -0.2516 21.0244347851 7.8669743787 33.9349297715 # Oc
197 1 1 0.4557 21.8471911345 8.8438947320 33.9696250611 # C
198 1 2 -0.1368 22.5778569580 8.0171954220 34.4699225514 # F
199 1 2 -0.1393 22.4071248328 8.8212765200 32.8288909442 # F
200 1 1 0.1062 21.5541469880 9.9294613993 33.1307533947 # C
201 1 2 -0.1457 21.0943941653 10.6519805703 34.2923538883 # F
202 1 2 -0.1482 22.7511060092 9.8017432043 33.1100404501 # F
203 1 4 1.1345 21.8575520766 9.2685619903 32.0161619124 # S
204 1 5 -0.6371 22.4077149772 9.9764336734 31.8111795752 # Os
205 1 5 -0.6371 22.3466455668 8.4810774782 31.9201305698 # Os
206 1 5 -0.6371 21.0988459102 9.4696107708 31.8152364259 # Os
207 1 6 1.0000 19.9179678702 9.9751476077 31.5366058944 # Na
208 1 1 0.3275 18.8290958415 8.4899522834 37.5853674088 # C
209 1 2 -0.1576 17.7858737344 9.1859074851 37.4978404613 # F
210 1 2 -0.1576 19.5440132801 9.3218783245 37.9172182879 # F
211 1 1 0.3275 19.4349603564 8.6345705420 36.6787406945 # C
212 1 2 -0.1576 20.5832475415 8.0187387545 36.7568082737 # F
213 1 2 -0.1576 18.8283506903 7.3793204733 35.8752003807 # F
214 1 1 0.3275 19.8481790771 9.9062990130 37.4192472537 # C
215 1 2 -0.1576 19.3534371567 10.2565900517 38.3612099324 # F
216 1 2 -0.1576 19.5839976695 11.0405298457 37.4944476773 # F
217 1 1 0.3275 20.5461251915 9.6473689068 36.8610008502 # C
218 1 2 -0.1576 20.2416556132 8.6116714538 36.4166467164 # F
219 1 2 -0.1576 20.6339279149 10.7453089223 36.4703638114 # F
220 1 1 0.3275 21.4203784897 9.3948466770 36.8256175536 # C
221 1 2 -0.1576 22.0911437898 8.6971881797 37.6349561793 # F
222 1 2 -0.1576 21.5746916472 10.4737258460 36.2548549057 # F
223 1 1 0.3275 22.0250679546 9.8275322578 36.4170770075 # C
224 1 2 -0.1576 22.5808525145 9.1111785993 36.2419597856 # F
225 1 2 -0.1576 23.1484598227 10.2006033703 36.7590180301 # F
226 1 1 0.3275 22.0627495470 9.7024555728 35.5029454802 # C
227 1 2 -0.1576 22.2075912188 8.5994618375 35.6098052139 # F
228 1 2 -0.1576 22.8338071498 10.5416955094 35.5396747627 # F
229 1 1 0.3275 21.2768899192 9.5874298976 34.9654034170 # C
230 1 2 -0.1576 20.7447537722 8.6403866031 34.6890550734 # F
231 1 2 -0.1576 21.7590730883 9.6158029490 33.7115120600 # F
232 1 1 0.3275 20.4366673788 10.0381656306 34.7231284573 # C
233 1 2 -0.1576 19.6804343600 10.2024906043 35.6860707283 # F
234 1 2 -0.1576 20.8175451718 10.8829186993 35.1960044184 # F
235 1 1 0.3275 19.9854097556 9.7619824609 33.6917619107 # C
236 1 2 -0.1576 19.4056628299 8.7528285830 34.1330095730 # F
237 1 2 -0.1576 19.5955699303 9.7569817001 32.7257977786 # F
238 1 1 0.3275 19.5210892821 11.1148458468 34.2108695647 # C
239 1 2 -0.1576 18.4824069431 10.5398806569 34.6918846891 # F
240 1 2 -0.1576 19.6003520711 11.7169368329 35.1550838411 # F
241 1 1 0.3275 20.1580074648 11.9600233676 34.2527759112 # C
242 1 2 -0.1576 19.6108514772 12.7788909739 33.8122758719 # F
243 1 2 -0.1576 20.8545131413 11.4190740473 33.8412783364 # F
244 1 1 0.3275 19.6143039264 12.4759748904 35.2512563907 # C
245 1 2 -0.1576 19.5541942919 13.5854546261 34.6159745917 # F
246 1 2 -0.1576 18.9476132017 12.0845790809 35.9026574557 # F
247 1 1 0.3275 19.8615716663 12.6639488175 36.1881593035 # C
248 1 2 -0.1576 20.0326270785 11.7866771097 36.8936352571 # F
249 1 2 -0.1576 20.6929107175 13.5165624169 35.8742207725 # F
250 1 1 0.2465 19.3297078741 13.4835842625 37.1954331889 # C
251 1 2 -0.1336 20.3100156814 13.4727421466 37.6506860245 # F
252 1 2 -0.1336 18.9663537178 14.2129748280 36.6272370800 # F
253 1 1 0.1317 18.5912322099 12.7899669713 37.5477009305 # C
254 1 2 -0.1193 18.8238623485 12.4205951248 38.5633137720 # F
255 1 3 -0.3109 18.0184629981 12.8948498616 38.3490303967 # Oc
256 1 1 0.4954 16.9284543630 12.7466875779 38.3027705814 # C
257 1 2 -0.1280 17.2323225035 13.4684233627 37.4026921889 # F
258 1 2 -0.1559 16.3763103922 12.3425210189 37.4842195930 # F
259 1 1 0.0465 16.4080092122 12.2071535121 38.9361966597 # C
260 1 2 -0.1122 15.3570117385 12.0635168789 39.2723672020 # F
261 1 1 0.5842 15.7598533233 11.2903874173 38.5676158947 # C
262 1 2 -0.1563 15.5155152569 11.2449118704 37.6476699728 # F
263 1 2 -0.1736 14.4723727751 11.3055793147 39.0153083174 # F
264 1 2 -0.1844 16.4083147548 10.5399526117 37.9018708549 # F
265 1 3 -0.2516 17.1900556886 12.4426604233 39.6602114355 # Oc
266 1 1 0.4557 17.1645001111 13.4939126189 39.6629709084 # C
267 1 2 -0.1368 17.4022646382 14.1906330183 40.5075011480 # F
268 1 2 -0.1393 17.6956154823 13.3445894308 39.1072447961 # F
269 1 1 0.1062 16.3613518701 14.1562546115 38.6046866996 # C
270 1 2 -0.1457 16.7403742865 14.9772863281 38.6296088733 # F
271 1 2 -0.1482 15.4132967340 13.1119984950 38.0804096656 # F
272 1 4 1.1345 15.3779674201 14.3053933139 39.1770676585 # S
273 1 5 -0.6371 15.5086665674 15.3148104219 38.7734773078 # Os
274 1 5 -0.6371 15.1892630699 13.8691680016 39.9971690426 # Os
275 1 5 -0.6371 14.6375215538 13.8908543500 38.9282203770 # Os
276 1 6 1.0000 14.0237169289 13.1459499759 39.3759639579 # Na
277 1 1 0.3275 17.8850481269 11.7460099738 36.6297104419 # C
278 1 2 -0.1576 16.7874677266 11.7461560029 36.7476544342 # F
279 1 2 -0.1576 18.2593375110 11.0786076958 37.3643013358 # F
280 1 1 0.3275 18.2892217814 10.8645156802 36.0767318360 # C
281 1 2 -0.1576 17.5016934750 10.0927559025 36.5290091958 # F
282 1 2 -0.1576 17.7220573496 11.1589842058 35.0826591617 # F
283 1 1 0.3275 18.8739972725 10.3996736269 36.0309922745 # C
284 1 2 -0.1576 19.4609334189 11.1958867955 35.8093092173 # F
285 1 2 -0.1576 19.0418562787 10.3972541802 36.9234075464 # F
286 1 1 0.3275 18.4310556225 9.5385036101 35.1740291238 # C
287 1 2 -0.1576 18.4127405040 8.6689955221 34.4385788351 # F
288 1 2 -0.1576 17.5725871771 9.3953596631 35.7570176377 # F
289 1 1 0.3275 18.9313061492 8.7622264963 35.6304462543 # C
290 1 2 -0.1576 18.0730787520 8.9406430069 36.6934039427 # F
291 1 2 -0.1576 19.6517805514 8.3892092246 34.9887120876 # F
292 1 1 0.3275 19.6274268381 9.5033169406 36.1524726689 # C
293 1 2 -0.1576 18.9725817431 9.4243630955 37.1432782641 # F
294 1 2 -0.1576 20.0831251597 8.7995038454 37.2258496197 # F
295 1 1 0.3275 20.0219721350 9.9432303028 35.0320246940 # C
296 1 2 -0.1576 20.7643575206 10.1788123022 35.7667110760 # F
297 1 2 -0.1576 19.4819441685 10.2104098654 34.1330209521 # F
298 1 1 0.3275 19.9584384916 9.2282282447 34.4595833283 # C
299 1 2 -0.1576 20.9232976973 9.2213448361 34.2702991048 # F
300 1 2 -0.1576 20.1254773267 8.3311423959 35.7170016477 # F
301 1 1 0.3275 19.3797827198 9.1701901695 33.3366750353 # C
302 1 2 -0.1576 19.2838536892 7.9714222335 32.9821272592 # F
303 1 2 -0.1576 18.6425172932 9.6131578384 33.0946422488 # F
304 1 1 0.3275 20.4106347070 9.2756861680 32.3720487468 # C
305 1 2 -0.1576 20.9171359108 10.0337450946 32.5676386011 # F
306 1 2 -0.1576 20.2125940600 8.5698555310 31.5409634107 # F
307 1 1 0.3275 20.9140356929 8.3420946122 32.5657541978 # C
308 1 2 -0.1576 20.6163650603 8.2183486119 33.6043412243 # F
309 1 2 -0.1576 21.9959199160 8.2783832391 32.6579998025 # F
310 1 1 0.3275 20.1235724716 7.2409133233 32.5772308280 # C
311 1 2 -0.1576 20.3438551010 6.7922812468 31.5334692097 # F
312 1 2 -0.1576 20.9181356009 6.4902736380 32.9184544816 # F
313 1 1 0.3275 19.1227195689 7.4184259705 33.1001566706 # C
314 1 2 -0.1576 18.1917356170 8.1798422107 33.7240731145 # F
315 1 2 -0.1576 19.3856327727 7.9298411200 34.2065292381 # F
316 1 1 0.3275 18.7345882335 6.6296230530 33.0961751819 # C
317 1 2 -0.1576 18.7306613326 5.9785834259 34.4340524904 # F
318 1 2 -0.1576 19.6349698535 5.6453041513 33.0823045423 # F
319 1 1 0.2465 17.4144030927 6.3723535697 32.6900825917 # C
320 1 2 -0.1336 17.2696811593 5.2961997114 32.2752657451 # F
321 1 2 -0.1336 16.9623846076 6.7318710666 33.7372015203 # F
322 1 1 0.1317 16.9662791788 7.1318433637 32.0859789025 # C
323 1 2 -0.1193 15.9855260465 6.6516705672 31.6288419678 # F
324 1 3 -0.3109 16.0571966437 7.6885744853 31.9063860976 # Oc
325 1 1 0.4954 15.4356550613 8.7485873998 32.5653969307 # C
326 1 2 -0.1280 15.9521819326 9.2053667527 33.0691764426 # F
327 1 2 -0.1559 15.9583957908 8.9995793760 31.3366719059 # F
328 1 1 0.0465 14.6482330734 8.2298927510 32.8115139736 # C
329 1 2 -0.1122 14.5090551020 8.9742179743 33.1908566406 # F
330 1 1 0.5842 13.7206447311 8.2466469634 31.9657300190 # C
331 1 2 -0.1563 12.9032578204 8.8481757978 32.7203820183 # F
332 1 2 -0.1736 14.2659175707 7.7931756173 31.3508375242 # F
333 1 2 -0.1844 13.3726578166 7.1771784709 31.8867456486 # F
334 1 3 -0.2516 13.9571755333 7.5199472426 32.4817917048 # Oc
335 1 1 0.4557 13.4197466298 7.4020132855 32.9448310224 # C
336 1 2 -0.1368 13.8127243242 6.6147502753 32.6204016907 # F
337 1 2 -0.1393 13.1895934793 8.2200778700 32.7386355826 # F
338 1 1 0.1062 12.8099756675 7.2038842537 33.6838410977 # C
339 1 2 -0.1457 11.8842672505 6.8376331564 33.6070621387 # F
340 1 2 -0.1482 11.7493648374 7.9460973725 33.3736378901 # F
341 1 4 1.1345 13.5960779807 7.4859357218 34.4469080247 # S
342 1 5 -0.6371 13.3737880023 8.4842945686 34.4487481423 # Os
343 1 5 -0.6371 14.3332551503 7.4406714724 33.7296541462 # Os
344 1 5 -0.6371 13.8361050105 7.2224461501 35.6685089827 # Os
345 1 6 1.0000 13.3540486336 6.3426208551 36.1487211451 # Na
346 1 1 0.3275 18.0371526842 7.5346848282 31.6414148672 # C
347 1 2 -0.1576 18.8512718208 6.3357545671 31.8325994890 # F
348 1 2 -0.1576 19.3375970695 8.4456197540 32.0601763991 # F
349 1 1 0.3275 18.0026447875 7.9296848419 30.7125870184 # C
350 1 2 -0.1576 18.7358682371 8.6274642615 30.5751022354 # F
351 1 2 -0.1576 16.8124873602 7.2328346341 30.7317637589 # F
352 1 1 0.3275 18.7718079128 7.2305158818 29.8298124739 # C
353 1 2 -0.1576 19.1668656634 6.2121458164 29.7925630120 # F
354 1 2 -0.1576 18.1534169293 6.5511479323 29.5494808129 # F
355 1 1 0.3275 19.4804707514 7.5739654036 29.8503770666 # C
356 1 2 -0.1576 19.4982366000 8.1286024589 30.4679015935 # F
357 1 2 -0.1576 20.4045233732 6.9115579386 29.5835520676 # F
358 1 1 0.3275 20.0268416081 8.7009156155 29.6627172458 # C
359 1 2 -0.1576 20.4838079882 7.8455938913 30.0723963761 # F
360 1 2 -0.1576 21.1936949251 9.0453418816 29.6781322460 # F
361 1 1 0.3275 19.5900063139 9.3252932168 29.9097736444 # C
362 1 2 -0.1576 19.7477409677 10.4354968388 29.5230386632 # F
363 1 2 -0.1576 19.7216193503 9.1906568583 30.8423806770 # F
364 1 1 0.3275 19.2693732814 9.0400487225 28.8069986008 # C
365 1 2 -0.1576 20.0488115076 9.6187782686 28.6654432485 # F
366 1 2 -0.1576 19.1460895190 9.5511868303 27.8907435954 # F
367 1 1 0.3275 18.4572584536 7.9286077878 28.7986111701 # C
368 1 2 -0.1576 17.8709832679 8.2455342982 29.5702129915 # F
369 1 2 -0.1576 18.1219860890 6.8969687987 28.5318332796 # F
370 1 1 0.3275 19.3979778492 7.1772755118 27.8038298901 # C
371 1 2 -0.1576 20.3922417829 6.9642848619 28.0177648126 # F
372 1 2 -0.1576 19.1504044137 6.4863631856 27.9678124774 # F
373 1 1 0.3275 19.3790538329 7.4559075771 26.6975801341 # C
374 1 2 -0.1576 20.2564904054 6.9293643547 26.0974325844 # F
375 1 2 -0.1576 18.1400878966 7.1205091149 26.6962627242 # F
376 1 1 0.3275 19.5073902106 8.7873653111 26.5625041853 # C
377 1 2 -0.1576 20.4193371796 9.3261237040 27.6478958270 # F
378 1 2 -0.1576 19.2326379474 9.1913160286 27.1085949354 # F
379 1 1 0.3275 19.0284386562 9.0995266876 25.4080829890 # C
380 1 2 -0.1576 19.8601146762 9.1159010512 24.6853934674 # F
381 1 2 -0.1576 18.8417238241 10.2291499757 25.5943158550 # F
382 1 1 0.3275 18.2186959350 8.8486037677 25.3085481584 # C
383 1 2 -0.1576 17.4266371432 8.6542058897 25.9190163836 # F
384 1 2 -0.1576 18.2861858729 9.2826177033 24.2930703884 # F
385 1 1 0.3275 19.2709749152 7.9068930885 25.7162421709 # C
386 1 2 -0.1576 20.0433543146 8.5871460715 27.0776024794 # F
387 1 2 -0.1576 19.8891338855 7.9889982295 24.8102541274 # F
388 1 1 0.2465 19.6115053791 6.6653662496 25.5406012481 # C
389 1 2 -0.1336 19.7716808611 5.7753798419 26.1978303591 # F
390 1 2 -0.1336 19.3485698566 6.5561962884 24.1141103793 # F
391 1 1 0.1317 20.1199056424 7.6541826313 26.2622905668 # C
392 1 2 -0.1193 20.8227480779 7.5544068155 26.5342236096 # F
393 1 3 -0.3109 18.7985052734 7.8648866190 26.9207113402 # Oc
394 1 1 0.4954 17.3114960042 8.1925630227 27.0184327649 # C
395 1 2 -0.1280 17.1026449256 7.6122311308 26.0826642904 # F
396 1 2 -0.1559 17.5271670810 8.9662871693 27.3371602362 # F
397 1 1 0.0465 16.4117717048 8.3229162926 27.7231983315 # C
398 1 2 -0.1122 15.2767723346 7.8011123036 27.6687062196 # F
399 1 1 0.5842 16.2518174039 9.0746463193 27.0993759450 # C
400 1 2 -0.1563 16.3188221519 8.2432424732 26.2573717377 # F
401 1 2 -0.1736 15.3081921371 9.6498893851 27.0072091498 # F
402 1 2 -0.1844 16.6782369751 9.7487322448 26.3380832278 # F
403 1 3 -0.2516 16.8121788754 8.3830518237 28.8349733147 # Oc
404 1 1 0.4557 16.5772010081 8.6749934548 29.6986097601 # C
405 1 2 -0.1368 16.0181010767 7.9258437491 30.1277717991 # F
406 1 2 -0.1393 15.7937951926 8.8160774882 29.9379912354 # F
407 1 1 0.1062 16.8639813636 9.9909952413 30.2761243749 # C
408 1 2 -0.1457 18.4898199315 10.3118010657 29.9888999437 # F
409 1 2 -0.1482 16.9114615338 9.1198795348 30.7060145318 # F
410 1 4 1.1345 16.3265418959 10.5982444111 30.5124796436 # S
411 1 5 -0.6371 15.5350358410 10.4301064661 31.2043342142 # Os
412 1 5 -0.6371 16.8681248024 11.4770009474 31.0497979277 # Os
413 1 5 -0.6371 16.0212432873 10.4707276272 30.0413013607 # Os
414 1 6 1.0000 15.0193494005 11.0070473167 30.2703335291 # Na
415 1 1 0.3275 19.8337605182 8.9230394269 25.7734226674 # C
416 1 2 -0.1576 19.8073948262 9.8347631565 25.2138977741 # F
417 1 2 -0.1576 18.4692732282 8.6690189890 26.1907532713 # F
418 1 1 0.3275 20.6074938975 9.5389773532 25.4797250861 # C
419 1 2 -0.1576 21.4313620127 9.5324721833 25.9577517509 # F
420 1 2 -0.1576 20.6768907460 10.2098062129 26.1134356509 # F
421 1 1 0.3275 20.3558907624 9.6581581036 24.3349027947 # C
422 1 2 -0.1576 19.9276911506 9.2400421046 23.1516103641 # F
423 1 2 -0.1576 20.6870495845 8.8165321004 24.3392134028 # F
424 1 1 0.3275 20.1727753447 10.5254103248 23.4076380255 # C
425 1 2 -0.1576 20.1178387174 9.7265119167 22.6767982103 # F
426 1 2 -0.1576 19.3146397558 10.8211557047 24.1178219623 # F
427 1 1 0.3275 20.8730657456 11.2700475731 22.9679050823 # C
428 1 2 -0.1576 19.4983902899 11.6941941172 23.1979339924 # F
429 1 2 -0.1576 21.6255018407 11.7458693044 22.0642303370 # F
430 1 1 0.3275 21.4502908677 10.5750441590 23.6826994181 # C
431 1 2 -0.1576 22.4462219865 10.0437061532 23.3151621322 # F
432 1 2 -0.1576 20.7097408236 10.1616750608 23.7465694417 # F
433 1 1 0.3275 22.0481920799 10.6661585426 24.4840888660 # C
434 1 2 -0.1576 22.1744698864 10.1747923316 25.3070510784 # F
435 1 2 -0.1576 23.2789169405 10.0919132185 24.2027330220 # F
436 1 1 0.3275 22.3479684332 11.4291881748 24.4767331049 # C
437 1 2 -0.1576 21.6897639638 12.2553599641 24.8320747335 # F
438 1 2 -0.1576 22.3133897796 12.4229192416 23.6067971090 # F
439 1 1 0.3275 23.3063938890 11.9856830570 23.7286052607 # C
440 1 2 -0.1576 23.7718506580 12.6235191954 24.3635493229 # F
441 1 2 -0.1576 23.9973236023 10.9879426632 24.3203757949 # F
442 1 1 0.3275 23.9775184785 11.9425727400 22.3376496619 # C
443 1 2 -0.1576 23.9379046620 10.7126286149 22.1782768621 # F
444 1 2 -0.1576 23.2332725756 12.2945035314 21.6379416042 # F
445 1 1 0.3275 25.1969660945 11.8997796821 22.1269567689 # C
446 1 2 -0.1576 25.8968124353 12.4380062664 22.1110726334 # F
447 1 2 -0.1576 25.4945758167 12.3480307872 23.1847853302 # F
448 1 1 0.3275 25.3592443023 11.0503818555 21.8205262592 # C
449 1 2 -0.1576 25.7733463581 10.2886980902 21.8492395259 # F
450 1 2 -0.1576 24.5794440192 10.7895182152 20.8638669011 # F
451 1 1 0.3275 25.8260148689 11.4319290666 20.6239369392 # C
452 1 2 -0.1576 25.3633466224 11.8967065318 20.1932771434 # F
453 1 2 -0.1576 25.9863226931 10.8318235724 20.0975385397 # F
454 1 1 0.3275 26.6954901703 12.4897953305 21.4072755450 # C
455 1 2 -0.1576 25.6166584473 13.1179199179 21.4988792616 # F
456 1 2 -0.1576 27.1481524318 12.2838818381 22.1440886977 # F
457 1 1 0.2465 27.2416626165 12.9757194119 20.8867876107 # C
458 1 2 -0.1336 26.6480082496 13.6879095518 19.7216912983 # F
459 1 2 -0.1336 27.2442635944 13.9932593052 21.6876031052 # F
460 1 1 0.1317 27.8666435867 12.2092064658 20.7930811069 # C
461 1 2 -0.1193 29.1036791474 11.7964835819 21.6502398451 # F
462 1 3 -0.3109 28.3089344092 12.2648589463 19.4415002776 # Oc
463 1 1 0.4954 29.2658914757 11.8786453274 18.6885628390 # C
464 1 2 -0.1280 28.7310419347 12.9231259933 18.1532472940 # F
465 1 2 -0.1559 30.1139925069 11.6131203963 18.8023014979 # F
466 1 1 0.0465 28.9521406008 10.8916061250 17.9626468341 # C
467 1 2 -0.1122 28.2785491905 10.0302209379 18.5242846029 # F
468 1 1 0.5842 29.9402609176 11.0126225579 19.1558800707 # C
469 1 2 -0.1563 29.9062839924 11.2870086887 19.8369546544 # F
470 1 2 -0.1736 30.4235598996 10.0416319410 18.5889431240 # F
471 1 2 -0.1844 30.9855130376 11.9063006539 18.7487588498 # F
472 1 3 -0.2516 28.8353352119 11.6368747602 17.4442445214 # Oc
473 1 1 0.4557 28.1934627987 11.8759922746 17.2607962932 # C
474 1 2 -0.1368 27.9431705036 11.7784084506 16.1750882997 # F
475 1 2 -0.1393 27.7410926892 12.5425998772 16.9037200464 # F
476 1 1 0.1062 28.0390772628 12.0476721015 18.3364131666 # C
477 1 2 -0.1457 27.9852344251 10.8008379909 18.1047051432 # F
478 1 2 -0.1482 28.6598779663 11.6353709846 19.0461679004 # F
479 1 4 1.1345 27.3355257316 12.7054187288 18.4989289383 # S
480 1 5 -0.6371 27.9319944039 13.1251249800 18.6660280603 # Os
481 1 5 -0.6371 27.6541466104 13.4115515641 19.3734830480 # Os
482 1 5 -0.6371 26.7563267652 12.5205094414 18.0150657956 # Os
483 1 6 1.0000 25.9895141667 11.6549072961 17.4494230241 # Na
484 1 1 0.3275 26.4598916377 12.1929383244 20.7048084107 # C